LAMMPS (2 Aug 2023 - Update 3)
OMP_NUM_THREADS environment is not set. Defaulting to 1 thread. (src/comm.cpp:98)
  using 1 OpenMP thread(s) per MPI task
Reading data file ...
  orthogonal box = (-100 -100 -2.3312515) to (100 100 46.166171)
  3 by 4 by 1 MPI processor grid
  reading atoms ...
  1480 atoms
  read_data CPU = 0.006 seconds
Replication is creating a 1x1x15 = 15 times larger system...
  orthogonal box = (-100 -100 -2.3312515) to (100 100 725.13009)
  1 by 2 by 6 MPI processor grid
  22200 atoms
  replicate CPU = 0.002 seconds
5400 atoms in group SR
Deleted 5400 atoms, new total = 16800
System init for write_data ...
WARNING: Communication cutoff is 0.0. No ghost atoms will be generated. Atoms may get lost. (src/comm_brick.cpp:210)
Reading airebo potential file CH.airebo with DATE: 2011-10-25
Reading airebo potential file CH.airebo with DATE: 2011-10-25
Reading airebo potential file CH.airebo with DATE: 2011-10-25
Neighbor list info ...
  update: every = 1 steps, delay = 0 steps, check = yes
  max neighbors/atom: 2000, page size: 100000
  master list distance cutoff = 13.2
  ghost atom cutoff = 13.2
  binsize = 6.6, bins = 31 31 111
  6 neighbor lists, perpetual/occasional/extra = 6 0 0
  (1) pair airebo, perpetual, skip from (5)
      attributes: full, newton on, ghost
      pair build: skip/ghost
      stencil: none
      bin: none
  (2) pair airebo, perpetual, skip from (5)
      attributes: full, newton on, ghost
      pair build: skip/ghost
      stencil: none
      bin: none
  (3) pair airebo, perpetual, skip from (5)
      attributes: full, newton on, ghost
      pair build: skip/ghost
      stencil: none
      bin: none
  (4) pair lj/cut, perpetual, skip from (6)
      attributes: half, newton on, cut 13
      pair build: skip
      stencil: none
      bin: none
  (5) neighbor class addition, perpetual
      attributes: full, newton on, ghost
      pair build: full/bin/ghost
      stencil: full/ghost/bin/3d
      bin: standard
  (6) neighbor class addition, perpetual
      attributes: half, newton on, cut 13
      pair build: half/bin/atomonly/newton
      stencil: half/bin/3d
      bin: standard
Setting up sd style minimization ...
  Unit style    : metal
  Current step  : 0
Per MPI rank memory allocation (min/avg/max) = 12.95 | 13.33 | 13.71 Mbytes
   Step          Temp          E_pair         E_mol          TotEng         Press     
         0   0             -124531.43      0             -124531.43     -48.029154    
         1   0             -124531.61      0             -124531.61     -47.94229     
Loop time of 0.0668088 on 12 procs for 1 steps with 16800 atoms

90.1% CPU use with 12 MPI tasks x 1 OpenMP threads

Minimization stats:
  Stopping criterion = energy tolerance
  Energy initial, next-to-last, final = 
       -124531.4281894    -124531.4281894  -124531.606699737
  Force two-norm initial, final = 6.80348 1.1068747
  Force max component initial, final = 0.052442243 0.0085447709
  Final line search alpha, max atom move = 1 0.0085447709
  Iterations, force evaluations = 1 2

MPI task timing breakdown:
Section |  min time  |  avg time  |  max time  |%varavg| %total
---------------------------------------------------------------
Pair    | 0.038982   | 0.048474   | 0.066045   |   5.3 | 72.56
Neigh   | 0          | 0          | 0          |   0.0 |  0.00
Comm    | 0.00042788 | 0.017768   | 0.027225   |   8.7 | 26.59
Output  | 0          | 0          | 0          |   0.0 |  0.00
Modify  | 0          | 0          | 0          |   0.0 |  0.00
Other   |            | 0.0005667  |            |       |  0.85

Nlocal:           1400 ave        1450 max        1350 min
Histogram: 6 0 0 0 0 0 0 0 0 6
Nghost:           1988 ave        2038 max        1938 min
Histogram: 6 0 0 0 0 0 0 0 0 6
Neighs:              0 ave           0 max           0 min
Histogram: 12 0 0 0 0 0 0 0 0 0

Total # of neighbors = 0
Ave neighs/atom = 0
Neighbor list builds = 0
Dangerous builds = 0
Setting up Verlet run ...
  Unit style    : metal
  Current step  : 1
  Time step     : 0.001
Per MPI rank memory allocation (min/avg/max) = 13.57 | 13.95 | 14.34 Mbytes
   Step          Temp          E_pair         E_mol          TotEng         Press          Volume    
         1   300           -124531.61      0             -123880.17     -24.030146      29098454     
Loop time of 3.06318e-05 on 12 procs for 0 steps with 16800 atoms

70.5% CPU use with 12 MPI tasks x 1 OpenMP threads

MPI task timing breakdown:
Section |  min time  |  avg time  |  max time  |%varavg| %total
---------------------------------------------------------------
Pair    | 0          | 0          | 0          |   0.0 |  0.00
Neigh   | 0          | 0          | 0          |   0.0 |  0.00
Comm    | 0          | 0          | 0          |   0.0 |  0.00
Output  | 0          | 0          | 0          |   0.0 |  0.00
Modify  | 0          | 0          | 0          |   0.0 |  0.00
Other   |            | 3.063e-05  |            |       |100.00

Nlocal:           1400 ave        1400 max        1400 min
Histogram: 12 0 0 0 0 0 0 0 0 0
Nghost:           1988 ave        1988 max        1988 min
Histogram: 12 0 0 0 0 0 0 0 0 0
Neighs:              0 ave           0 max           0 min
Histogram: 12 0 0 0 0 0 0 0 0 0

Total # of neighbors = 0
Ave neighs/atom = 0
Neighbor list builds = 0
Dangerous builds = 0
WARNING: Dump 2 includes no atom IDs and is not sorted by ID. This may complicate post-processing tasks or visualization (src/dump.cpp:221)
Setting up Verlet run ...
  Unit style    : metal
  Current step  : 0
  Time step     : 0.001
Per MPI rank memory allocation (min/avg/max) = 15.07 | 15.45 | 15.84 Mbytes
   Step         PotEng         KinEng         TotEng           Lx             Ly             Lz      
         0  -124531.61      651.43235     -123880.17      200            200            727.46134    
       100  -124154.01      318.02641     -123835.99      199.99442      199.99378      727.82508    
       200  -124172.06      395.73012     -123776.33      199.99228      199.99105      728.18881    
       300  -124114.51      409.64346     -123704.86      199.99786      199.99603      728.55254    
       400  -124083.24      456.72093     -123626.52      199.99027      199.98739      728.91627    
       500  -124041.31      497.77378     -123543.54      199.99202      199.98837      729.28       
       600  -123997.66      539.34853     -123458.31      199.99561      199.9905       729.64373    
       700  -123951.03      576.06149     -123374.97      199.98677      199.97977      730.00746    
       800  -123912.24      613.68881     -123298.55      199.99323      199.98449      730.37119    
       900  -123886.05      650.7302      -123235.32      199.99408      199.98271      730.73492    
      1000  -123860.05      665.94574     -123194.1       199.98395      199.96915      731.09865    
      1100  -123853.02      666.76868     -123186.25      199.99307      199.97454      731.46238    
      1200  -123863.4       654.02294     -123209.38      199.99082      199.96798      731.82611    
      1300  -123883.06      648.87844     -123234.18      199.9842       199.95642      732.18984    
      1400  -123874.56      635.3129      -123239.25      199.99459      199.96176      732.55357    
      1500  -123862.58      644.33203     -123218.25      199.98868      199.94929      732.91731    
      1600  -123849.36      658.48198     -123190.88      199.98702      199.9405       733.28104    
      1700  -123839.44      661.22118     -123178.22      199.99758      199.94403      733.64477    
      1800  -123840.77      653.68971     -123187.08      199.98878      199.92697      734.0085     
      1900  -123851.34      647.54654     -123203.8       199.99042      199.91973      734.37223    
      2000  -123849.62      641.90263     -123207.72      199.9987       199.91879      734.73596    
      2100  -123838.63      647.21168     -123191.42      199.98988      199.90015      735.09969    
      2200  -123828.77      660.06801     -123168.7       199.99693      199.89728      735.46342    
      2300  -123811.81      656.31314     -123155.5       200.00124      199.89113      735.82715    
      2400  -123815.62      657.06653     -123158.55      199.99243      199.87127      736.19088    
      2500  -123814.7       644.91464     -123169.79      200.00156      199.86929      736.55461    
      2600  -123817.83      644.61674     -123173.22      200.00247      199.85931      736.91834    
      2700  -123806.99      645.47477     -123161.52      199.9945       199.84067      737.28207    
      2800  -123792.59      651.56418     -123141.03      200.00393      199.83922      737.6458     
      2900  -123779.08      656.95319     -123122.12      200.00069      199.82553      738.00953    
      3000  -123777.48      659.83129     -123117.65      199.99497      199.80948      738.37327    
      3100  -123776.32      651.14154     -123125.18      200.00353      199.80807      738.737      
      3200  -123777         647.77247     -123129.23      199.99676      199.79178      739.10073    
      3300  -123764.2       642.10189     -123122.1       199.99335      199.77914      739.46446    
      3400  -123752.43      648.05815     -123104.37      199.99978      199.77679      739.82819    
      3500  -123738.84      654.4106      -123084.43      199.98911      199.75899      740.19192    
      3600  -123730.34      655.24212     -123075.1       199.98729      199.74987      740.55565    
      3700  -123730.86      654.46854     -123076.4       199.99002      199.74594      740.91938    
      3800  -123726.8       647.42861     -123079.37      199.97746      199.7279       741.28311    
      3900  -123726.18      651.19948     -123074.98      199.97684      199.72191      741.64684    
      4000  -123709.12      649.51726     -123059.61      199.97578      199.71636      742.01057    
      4100  -123700.08      659.98703     -123040.1       199.96253      199.69916      742.3743     
      4200  -123685.81      657.83005     -123027.98      199.9621       199.69492      742.73803    
      4300  -123682         657.51586     -123024.49      199.95684      199.68681      743.10176    
      4400  -123672.46      647.76837     -123024.69      199.94316      199.67072      743.46549    
      4500  -123667.32      646.66756     -123020.65      199.94237      199.66749      743.82923    
      4600  -123655         648.03298     -123006.96      199.93459      199.65734      744.19296    
      4700  -123641.5       652.53989     -122988.96      199.92131      199.64193      744.55669    
      4800  -123622.12      649.3849      -122972.73      199.91942      199.63869      744.92042    
      4900  -123614.61      650.52401     -122964.09      199.90981      199.62723      745.28415    
      5000  -123608.65      647.47501     -122961.18      199.89657      199.61209      745.64788    
      5100  -123605.3       647.57996     -122957.72      199.89403      199.60761      746.01161    
      5200  -123595.3       648.01297     -122947.29      199.88258      199.59445      746.37534    
      5300  -123584.1       653.57611     -122930.52      199.87011      199.57953      746.73907    
      5400  -123569.79      657.33633     -122912.45      199.86715      199.57378      747.1028     
      5500  -123554.38      654.48159     -122899.9       199.85497      199.5581       747.46653    
      5600  -123542.34      647.36249     -122894.98      199.84286      199.54222      747.83026    
      5700  -123535.25      644.44488     -122890.81      199.83985      199.53518      748.19399    
      5800  -123530.07      648.67721     -122881.4       199.82766      199.51813      748.55772    
      5900  -123513.34      648.6144      -122864.73      199.81637      199.50077      748.92145    
      6000  -123501.35      655.70238     -122845.65      199.8136       199.49162      749.28519    
      6100  -123486.83      656.22591     -122830.6       199.8013       199.47208      749.64892    
      6200  -123480.16      657.25415     -122822.91      199.79098      199.45352      750.01265    
      6300  -123466.93      649.45013     -122817.48      199.7884       199.44215      750.37638    
      6400  -123455.83      649.81185     -122806.02      199.77557      199.41992      750.74011    
      6500  -123442.86      653.8904      -122788.97      199.76699      199.4016       751.10384    
      6600  -123427.67      656.12759     -122771.55      199.76475      199.38894      751.46757    
      6700  -123409.88      653.30838     -122756.57      199.75076      199.36372      751.8313     
      6800  -123397.86      651.27631     -122746.59      199.74358      199.34485      752.19503    
      6900  -123388.08      648.64115     -122739.44      199.74023      199.32972      752.55876    
      7000  -123372.88      646.39989     -122726.48      199.7246       199.30194      752.92249    
      7100  -123358.7       651.03039     -122707.67      199.71904      199.28383      753.28622    
      7200  -123335.89      649.14009     -122686.75      199.71425      199.26608      753.64995    
      7300  -123325.91      655.96869     -122669.94      199.69809      199.23745      754.01368    
      7400  -123311.36      649.12619     -122662.23      199.69306      199.22015      754.37741    
      7500  -123308.55      652.74105     -122655.8       199.68513      199.20004      754.74115    
      7600  -123294.71      651.10827     -122643.6       199.6686       199.17116      755.10488    
      7700  -123274.69      650.037       -122624.65      199.66352      199.15382      755.46861    
      7800  -123256.21      654.84152     -122601.37      199.65255      199.13142      755.83234    
      7900  -123236.33      654.71775     -122581.62      199.63472      199.10253      756.19607    
      8000  -123219.97      651.15305     -122568.82      199.62864      199.08567      756.5598     
      8100  -123212.62      653.08821     -122559.54      199.61511      199.06197      756.92353    
      8200  -123197.66      647.01346     -122550.64      199.59703      199.0347       757.28726    
      8300  -123180.76      645.51831     -122535.24      199.58853      199.01717      757.65099    
      8400  -123159.01      648.33955     -122510.67      199.57214      198.9927       758.01472    
      8500  -123143.1       655.94699     -122487.15      199.55451      198.96762      758.37845    
      8600  -123125.51      653.14794     -122472.36      199.54368      198.94982      758.74218    
      8700  -123111.59      649.48117     -122462.11      199.52339      198.92399      759.10591    
      8800  -123100.37      648.6197      -122451.75      199.50508      198.90057      759.46964    
      8900  -123077.87      642.04534     -122435.83      199.49183      198.8824       759.83337    
      9000  -123064.77      653.09948     -122411.67      199.47029      198.8563       760.19711    
      9100  -123044.82      656.14368     -122388.68      199.45168      198.83384      760.56084    
      9200  -123023.15      653.05863     -122370.09      199.43616      198.81481      760.92457    
      9300  -123012.95      654.8347      -122358.11      199.4133       198.78881      761.2883     
      9400  -122995.62      647.01683     -122348.6       199.39362      198.76607      761.65203    
      9500  -122980.67      647.50682     -122333.16      199.37595      198.74514      762.01576    
      9600  -122960.97      650.78712     -122310.19      199.35227      198.71867      762.37949    
      9700  -122930.4       646.85394     -122283.55      199.33251      198.69567      762.74322    
      9800  -122914.29      653.57649     -122260.71      199.31411      198.67381      763.10695    
      9900  -122901.89      655.43028     -122246.46      199.29054      198.64632      763.47068    
     10000  -122888.8       652.18344     -122236.61      199.27049      198.62203      763.83441    
     10100  -122862.82      641.08576     -122221.73      199.25105      198.59801      764.19814    
     10200  -122847.71      649.73675     -122197.98      199.22767      198.56985      764.56187    
     10300  -122817.69      647.89024     -122169.8       199.20774      198.54481      764.9256     
     10400  -122799.09      653.44273     -122145.65      199.18821      198.51887      765.28933    
     10500  -122782.96      653.15127     -122129.8       199.16473      198.4889       765.65307    
     10600  -122766.87      647.67758     -122119.2       199.1453       198.46228      766.0168     
     10700  -122752.93      647.83713     -122105.1       199.12543      198.43468      766.38053    
     10800  -122728.38      645.6921      -122082.69      199.10325      198.40361      766.74426    
     10900  -122706.21      651.47296     -122054.73      199.08438      198.37524      767.10799    
     11000  -122685.52      658.40047     -122027.12      199.06434      198.34551      767.47172    
     11100  -122663.83      656.80349     -122007.02      199.04249      198.31328      767.83545    
     11200  -122652.05      656.64656     -121995.4       199.0242       198.28379      768.19918    
     11300  -122628.08      645.55007     -121982.53      199.00427      198.25159      768.56291    
     11400  -122609.8       646.82392     -121962.97      198.98374      198.21857      768.92664    
     11500  -122583.51      649.56817     -121933.94      198.96567      198.18753      769.29037    
     11600  -122556.93      653.9284      -121903         198.94611      198.15469      769.6541     
     11700  -122537.68      659.1245      -121878.55      198.92583      198.12009      770.01783    
     11800  -122512.08      649.09458     -121862.98      198.90822      198.08855      770.38156    
     11900  -122500.67      649.26041     -121851.41      198.88873      198.05474      770.7453     
     12000  -122478.56      644.02367     -121834.53      198.86788      198.01965      771.10903    
     12100  -122453.81      645.67347     -121808.14      198.8503       197.98774      771.47276    
     12200  -122429.31      653.6299      -121775.68      198.83046      197.95323      771.83649    
     12300  -122403.51      657.42683     -121746.09      198.80966      197.91829      772.20022    
     12400  -122375.92      649.80896     -121726.11      198.7915       197.88686      772.56395    
     12500  -122367.05      654.56743     -121712.48      198.77036      197.85253      772.92768    
     12600  -122341.12      643.85575     -121697.27      198.74935      197.81811      773.29141    
     12700  -122326.5       653.07623     -121673.42      198.73         197.78628      773.65514    
     12800  -122293.59      652.09906     -121641.49      198.70766      197.75255      774.01887    
     12900  -122269.64      658.9159      -121610.73      198.6861       197.71964      774.3826     
     13000  -122242.09      654.3296      -121587.76      198.66637      197.68901      774.74633    
     13100  -122222.41      651.04242     -121571.37      198.6432       197.65585      775.11006    
     13200  -122203.31      647.94104     -121555.37      198.62048      197.62422      775.47379    
     13300  -122177.26      645.07626     -121532.18      198.59899      197.59439      775.83752    
     13400  -122152.03      651.74571     -121500.29      198.57531      197.56269      776.20126    
     13500  -122120.58      651.59548     -121468.98      198.55316      197.53316      776.56499    
     13600  -122104.33      659.75075     -121444.58      198.53073      197.50425      776.92872    
     13700  -122073.11      646.05907     -121427.05      198.50611      197.47392      777.29245    
     13800  -122062.92      653.99578     -121408.92      198.48313      197.44569      777.65618    
     13900  -122037.81      654.21581     -121383.59      198.45989      197.41717      778.01991    
     14000  -122006.31      655.86203     -121350.45      198.4355       197.38882      778.38364    
     14100  -121972.62      653.28009     -121319.34      198.4121       197.36156      778.74737    
     14200  -121957.1       660.58213     -121296.51      198.38871      197.3341       779.1111     
     14300  -121924.66      648.7073      -121275.95      198.36469      197.30654      779.47483    
     14400  -121898.44      644.25098     -121254.19      198.34146      197.28045      779.83856    
     14500  -121879.42      651.05208     -121228.37      198.31806      197.25417      780.20229    
     14600  -121847.74      646.88179     -121200.86      198.29456      197.22768      780.56602    
     14700  -121821.87      650.2716      -121171.6       198.27109      197.20097      780.92975    
     14800  -121803.85      658.39067     -121145.46      198.24944      197.17615      781.29348    
     14900  -121778.67      657.97566     -121120.7       198.22685      197.15055      781.65722    
     15000  -121741.88      646.00066     -121095.88      198.20368      197.12383      782.02095    
     15100  -121721.37      651.54174     -121069.83      198.18364      197.09953      782.38468    
     15200  -121695.01      654.57075     -121040.44      198.16185      197.07383      782.74841    
     15300  -121661.83      654.33292     -121007.5       198.14032      197.04789      783.11214    
     15400  -121637.15      657.12426     -120980.03      198.12187      197.02432      783.47587    
     15500  -121618.46      655.03092     -120963.43      198.10056      196.99721      783.8396     
     15600  -121586.77      646.24055     -120940.53      198.08059      196.9719       784.20333    
     15700  -121562.31      652.42812     -120909.88      198.06435      196.94939      784.56706    
     15800  -121531.92      656.08463     -120875.84      198.04399      196.92175      784.93079    
     15900  -121498.61      653.16733     -120845.44      198.02575      196.89661      785.29452    
     16000  -121471.04      651.76051     -120819.28      198.01112      196.87486      785.65825    
     16100  -121450.71      656.69442     -120794.01      197.99201      196.84773      786.02198    
     16200  -121425.47      655.75239     -120769.72      197.97624      196.82397      786.38571    
     16300  -121394.65      648.88465     -120745.76      197.96243      196.80211      786.74944    
     16400  -121369.6       647.52717     -120722.07      197.94424      196.77568      787.11318    
     16500  -121336.43      646.58156     -120689.85      197.92976      196.75309      787.47691    
     16600  -121305.36      653.21152     -120652.15      197.91687      196.73209      787.84064    
     16700  -121271.15      650.73004     -120620.42      197.89994      196.7066       788.20437    
     16800  -121248.37      655.38065     -120592.99      197.88655      196.68537      788.5681     
     16900  -121216.15      644.53281     -120571.61      197.87425      196.66522      788.93183    
     17000  -121196.64      646.82136     -120549.82      197.85806      196.64119      789.29556    
     17100  -121166.35      648.81541     -120517.53      197.8458       196.62137      789.65929    
     17200  -121134.18      652.09496     -120482.08      197.833        196.60184      790.02302    
     17300  -121104.05      653.70388     -120450.35      197.81753      196.5797       790.38675    
     17400  -121070.29      652.54894     -120417.74      197.80568      196.56086      790.75048    
     17500  -121037.78      653.54719     -120384.23      197.79325      196.54283      791.11421    
     17600  -121013.33      659.94674     -120353.38      197.77835      196.52283      791.47794    
     17700  -120976.64      644.98231     -120331.66      197.76601      196.50545      791.84167    
     17800  -120953         645.1862      -120307.81      197.75377      196.48872      792.2054     
     17900  -120919.28      643.77352     -120275.5       197.73946      196.47076      792.56914    
     18000  -120892.62      656.05758     -120236.56      197.7272       196.45482      792.93287    
     18100  -120855.51      651.32272     -120204.18      197.71517      196.44055      793.2966     
     18200  -120829.67      653.11905     -120176.55      197.70128      196.42453      793.66033    
     18300  -120797.05      647.49673     -120149.55      197.68867      196.40995      794.02406    
     18400  -120769.9       647.30444     -120122.6       197.6767       196.39708      794.38779    
     18500  -120743.31      646.40646     -120096.91      197.66268      196.38231      794.75152    
     18600  -120711.01      649.80647     -120061.2       197.65021      196.36914      795.11525    
     18700  -120675.01      654.01122     -120021         197.6392       196.35804      795.47898    
     18800  -120638.22      651.42888     -119986.79      197.62468      196.34387      795.84271    
     18900  -120608.13      651.56133     -119956.57      197.61236      196.33222      796.20644    
     19000  -120582.87      649.70822     -119933.16      197.60183      196.32221      796.57017    
     19100  -120557.08      650.03856     -119907.04      197.58701      196.30847      796.9339     
     19200  -120518.96      649.69549     -119869.26      197.57527      196.29803      797.29763    
     19300  -120479.75      648.32539     -119831.42      197.56483      196.28874      797.66136    
     19400  -120448.89      651.03894     -119797.85      197.55         196.2748       798.0251     
     19500  -120417.81      652.29258     -119765.52      197.53924      196.26527      798.38883    
     19600  -120384.11      649.90837     -119734.2       197.52923      196.25642      798.75256    
     19700  -120352.52      648.10998     -119704.41      197.51466      196.24281      799.11629    
     19800  -120322.51      649.71556     -119672.8       197.5045       196.23321      799.48002    
     19900  -120287.9       652.50275     -119635.39      197.49555      196.22456      799.84375    
     20000  -120252.65      656.8865      -119595.77      197.48192      196.21084      800.20748    
     20100  -120220.96      657.70958     -119563.25      197.4724       196.20134      800.57121    
     20200  -120186.86      646.55073     -119540.31      197.46349      196.19207      800.93494    
     20300  -120159.65      647.38219     -119512.26      197.45033      196.17797      801.29867    
     20400  -120124.1       649.66374     -119474.44      197.44201      196.1685       801.6624     
     20500  -120090.41      654.78753     -119435.63      197.43429      196.15912      802.02613    
     20600  -120048.08      648.08494     -119400         197.42219      196.14516      802.38986    
     20700  -120023.32      655.96426     -119367.35      197.41487      196.13553      802.75359    
     20800  -119986.28      647.26219     -119339.02      197.4074       196.12511      803.11732    
     20900  -119957.81      643.62091     -119314.19      197.39654      196.11091      803.48106    
     21000  -119919.01      642.2769      -119276.73      197.38968      196.10058      803.84479    
     21100  -119880.13      646.10132     -119234.03      197.38261      196.0895       804.20852    
     21200  -119844.61      648.08681     -119196.52      197.37272      196.0752       804.57225    
     21300  -119814.79      654.48992     -119160.3       197.3662       196.06399      804.93598    
     21400  -119773.54      649.84382     -119123.69      197.35952      196.05241      805.29971    
     21500  -119741.13      655.06933     -119086.06      197.35015      196.03771      805.66344    
     21600  -119706.74      654.35331     -119052.38      197.3442       196.0267       806.02717    
     21700  -119675.64      650.1263      -119025.51      197.33728      196.01456      806.3909     
     21800  -119644.89      649.83585     -118995.06      197.32766      195.99975      806.75463    
     21900  -119604.99      648.94806     -118956.04      197.32162      195.98812      807.11836    
     22000  -119565.22      653.79317     -118911.43      197.31486      195.97591      807.48209    
     22100  -119531.43      654.98426     -118876.44      197.30535      195.96107      807.84582    
     22200  -119493.81      648.37716     -118845.43      197.29884      195.94986      808.20955    
     22300  -119468.03      652.57438     -118815.46      197.29159      195.93784      808.57328    
     22400  -119430.13      648.37668     -118781.75      197.28174      195.92342      808.93702    
     22500  -119390.61      651.97364     -118738.64      197.27465      195.91244      809.30075    
     22600  -119351.25      655.21587     -118696.03      197.26675      195.90143      809.66448    
     22700  -119320.22      656.54474     -118663.67      197.2561       195.88738      810.02821    
     22800  -119285.41      650.03094     -118635.38      197.24823      195.87662      810.39194    
     22900  -119244.86      644.50796     -118600.36      197.23939      195.86569      810.75567    
     23000  -119212.86      651.42988     -118561.43      197.22838      195.85307      811.1194     
     23100  -119176.24      653.15526     -118523.09      197.21975      195.84315      811.48313    
     23200  -119134.4       648.42239     -118485.98      197.21042      195.83261      811.84686    
     23300  -119106.43      658.19317     -118448.23      197.19808      195.82019      812.21059    
     23400  -119056.96      652.54659     -118404.41      197.1887       195.81112      812.57432    
     23500  -119026.08      662.14086     -118363.94      197.17862      195.80124      812.93805    
     23600  -118987.44      651.92497     -118335.51      197.16516      195.78869      813.30178    
     23700  -118956.81      650.72734     -118306.08      197.15512      195.78027      813.66551    
     23800  -118920.24      651.21874     -118269.02      197.14341      195.77039      814.02925    
     23900  -118877.54      649.05148     -118228.49      197.12968      195.75882      814.39298    
     24000  -118836.41      652.38955     -118184.02      197.11927      195.75085      814.75671    
     24100  -118804.82      662.70881     -118142.11      197.10708      195.74137      815.12044    
     24200  -118765.53      650.03372     -118115.49      197.09277      195.73035      815.48417    
     24300  -118736.1       651.09253     -118085.01      197.0813       195.72199      815.8479     
     24400  -118700.68      655.77884     -118044.9       197.06907      195.71281      816.21163    
     24500  -118646.19      646.09555     -118000.09      197.05469      195.702        816.57536    
     24600  -118612.83      654.32103     -117958.51      197.04371      195.69423      816.93909    
     24700  -118573.3       651.34939     -117921.95      197.03075      195.68486      817.30282    
     24800  -118539.67      644.35627     -117895.31      197.01655      195.67379      817.66655    
     24900  -118503.58      642.34469     -117861.24      197.0049       195.66513      818.03028    
     25000  -118460.69      642.92407     -117817.77      196.99279      195.65598      818.39401    
     25100  -118426.38      652.45472     -117773.92      196.9788       195.64475      818.75774    
     25200  -118385.55      652.8618      -117732.69      196.96714      195.63536      819.12147    
     25300  -118344.53      650.96291     -117693.57      196.95561      195.62515      819.48521    
     25400  -118307.71      648.2658      -117659.45      196.94286      195.61382      819.84894    
     25500  -118278.23      647.31945     -117630.91      196.93091      195.60279      820.21267    
     25600  -118236.79      646.35747     -117590.43      196.91984      195.59207      820.5764     
     25700  -118194.51      652.03666     -117542.48      196.9081       195.57946      820.94013    
     25800  -118151.15      651.03477     -117500.12      196.8962       195.56688      821.30386    
     25900  -118106.71      648.5919      -117458.12      196.88581      195.55565      821.66759    
     26000  -118071.79      653.41257     -117418.38      196.87483      195.54262      822.03132    
     26100  -118030.73      648.73261     -117382         196.86341      195.5284       822.39505    
     26200  -118003.71      654.05033     -117349.66      196.85322      195.51576      822.75878    
     26300  -117958.29      646.20088     -117312.09      196.8428       195.50211      823.12251    
     26400  -117914.52      650.59225     -117263.93      196.83193      195.48737      823.48624    
     26500  -117880         661.13561     -117218.87      196.8225       195.47373      823.84997    
     26600  -117839.43      657.82422     -117181.6       196.81268      195.45985      824.2137     
     26700  -117793.01      646.1329      -117146.88      196.80155      195.44412      824.57743    
     26800  -117761.03      649.29571     -117111.74      196.79194      195.42909      824.94117    
     26900  -117722.97      645.83129     -117077.14      196.78249      195.41484      825.3049     
     27000  -117681.31      649.07727     -117032.23      196.77119      195.39861      825.66863    
     27100  -117633.96      650.88745     -116983.07      196.76193      195.38366      826.03236    
     27200  -117588.82      649.5752      -116939.24      196.7527       195.36895      826.39609    
     27300  -117550.64      653.55461     -116897.09      196.74045      195.35202      826.75982    
     27400  -117507.99      651.73564     -116856.25      196.7308       195.337        827.12355    
     27500  -117474.11      651.99193     -116822.12      196.72196      195.32282      827.48728    
     27600  -117436.19      648.59154     -116787.6       196.70844      195.30428      827.85101    
     27700  -117390.49      646.20611     -116744.29      196.6978       195.28967      828.21474    
     27800  -117348.44      654.77467     -116693.66      196.6878       195.27592      828.57847    
     27900  -117301.89      649.45321     -116652.43      196.67389      195.2575       828.9422     
     28000  -117267.69      653.44895     -116614.25      196.66229      195.24262      829.30593    
     28100  -117228.25      650.24403     -116578         196.65099      195.22898      829.66966    
     28200  -117185.01      641.61255     -116543.4       196.63521      195.21078      830.03339    
     28300  -117148.37      645.92127     -116502.45      196.62302      195.1963       830.39713    
     28400  -117099.82      649.69651     -116450.13      196.6114       195.18281      830.76086    
     28500  -117062.11      656.57922     -116405.53      196.59447      195.16555      831.12459    
     28600  -117014.53      649.31777     -116365.21      196.58055      195.15121      831.48832    
     28700  -116976.94      649.92324     -116327.01      196.56758      195.1379       831.85205    
     28800  -116939.81      651.32477     -116288.49      196.55006      195.12094      832.21578    
     28900  -116895.18      647.94084     -116247.23      196.53572      195.10789      832.57951    
     29000  -116847.66      648.37495     -116199.28      196.52101      195.09481      832.94324    
     29100  -116801.97      650.31171     -116151.66      196.50199      195.07785      833.30697    
     29200  -116768.59      657.16473     -116111.43      196.48676      195.06465      833.6707     
     29300  -116722.36      645.79647     -116076.57      196.47097      195.05186      834.03443    
     29400  -116682.77      638.42855     -116044.34      196.45159      195.03573      834.39816    
     29500  -116644.73      645.44507     -115999.29      196.43439      195.0217       834.76189    
     29600  -116597.02      645.32963     -115951.69      196.41793      195.00911      835.12562    
     29700  -116560.09      655.9192      -115904.18      196.39821      194.9933       835.48935    
     29800  -116510.86      653.2599      -115857.6       196.38021      194.9793       835.85309    
     29900  -116465.97      652.29114     -115813.67      196.36353      194.96647      836.21682    
     30000  -116426.4       650.76967     -115775.63      196.34388      194.95084      836.58055    
     30100  -116384.33      642.38421     -115741.94      196.32492      194.93564      836.94428    
     30200  -116344.25      645.34215     -115698.91      196.30835      194.92312      837.30801    
     30300  -116298.61      651.26448     -115647.34      196.28886      194.90729      837.67174    
     30400  -116252.75      650.99001     -115601.76      196.26998      194.89155      838.03547    
     30500  -116210.33      651.30997     -115559.02      196.25292      194.87812      838.3992     
     30600  -116169.42      649.27067     -115520.15      196.23431      194.86258      838.76293    
     30700  -116132.87      646.00243     -115486.86      196.21533      194.84586      839.12666    
     30800  -116090.68      645.65725     -115445.03      196.19806      194.83123      839.49039    
     30900  -116043.29      654.02494     -115389.26      196.1806       194.81531      839.85412    
     31000  -115995.21      651.80383     -115343.41      196.16225      194.79833      840.21785    
     31100  -115956.19      657.14958     -115299.05      196.14518      194.78224      840.58158    
     31200  -115907.13      650.76349     -115256.36      196.12887      194.7658       840.94531    
     31300  -115871.21      655.72864     -115215.48      196.11082      194.74733      841.30905    
     31400  -115828.61      652.68927     -115175.92      196.09419      194.72986      841.67278    
     31500  -115778.57      647.16089     -115131.41      196.07856      194.71271      842.03651    
     31600  -115733.01      654.04186     -115078.97      196.06168      194.69338      842.40024    
     31700  -115690.54      658.52649     -115032.02      196.04569      194.67457      842.76397    
     31800  -115641.04      650.30934     -114990.73      196.03078      194.65629      843.1277     
     31900  -115603.95      648.73994     -114955.21      196.01451      194.63632      843.49143    
     32000  -115567.23      646.63766     -114920.59      195.99876      194.61609      843.85516    
     32100  -115519.97      648.7096      -114871.26      195.98437      194.59729      844.21889    
     32200  -115468.71      652.61845     -114816.09      195.968        194.57638      844.58262    
     32300  -115418.36      648.78097     -114769.58      195.95258      194.55554      844.94635    
     32400  -115378.92      654.26246     -114724.66      195.93834      194.53568      845.31008    
     32500  -115333.33      650.88946     -114682.45      195.92297      194.5152       845.67381    
     32600  -115295.55      653.6762      -114641.88      195.90717      194.49385      846.03754    
     32700  -115248.31      648.18236     -114600.13      195.89236      194.47339      846.40127    
     32800  -115202.81      650.39704     -114552.41      195.87766      194.45293      846.76501    
     32900  -115147.8       648.20496     -114499.59      195.86191      194.43229      847.12874    
     33000  -115107.54      654.08803     -114453.46      195.84647      194.41158      847.49247    
     33100  -115064         650.69467     -114413.31      195.83138      194.39097      847.8562     
     33200  -115023.73      643.97276     -114379.76      195.81512      194.37006      848.21993    
     33300  -114984.1       646.85733     -114337.25      195.79894      194.34949      848.58366    
     33400  -114930.4       642.46257     -114287.94      195.78351      194.32947      848.94739    
     33500  -114884.17      647.16088     -114237.01      195.76686      194.30942      849.31112    
     33600  -114840.89      654.42001     -114186.47      195.74905      194.28856      849.67485    
     33700  -114794.96      656.16926     -114138.79      195.73231      194.269        850.03858    
     33800  -114742.68      648.47844     -114094.2       195.7146       194.2491       850.40231    
     33900  -114703.07      646.8413      -114056.22      195.6961       194.2291       850.76604    
     34000  -114665.66      648.49621     -114017.17      195.67787      194.20983      851.12977    
     34100  -114622.02      655.34988     -113966.67      195.65956      194.19087      851.4935     
     34200  -114565.31      651.56343     -113913.74      195.64016      194.17147      851.85723    
     34300  -114525.57      657.53546     -113868.04      195.6207       194.15296      852.22097    
     34400  -114471.42      645.9264      -113825.5       195.60152      194.13499      852.5847     
     34500  -114427.89      643.05623     -113784.83      195.58105      194.11585      852.94843    
     34600  -114390.62      649.58743     -113741.03      195.56052      194.09773      853.31216    
     34700  -114341.55      654.39119     -113687.16      195.54043      194.08072      853.67589    
     34800  -114285.14      649.37482     -113635.77      195.51952      194.06274      854.03962    
     34900  -114241.77      651.64153     -113590.13      195.49826      194.04466      854.40335    
     35000  -114201.69      651.13323     -113550.56      195.47758      194.0283       854.76708    
     35100  -114160.19      646.95898     -113513.23      195.45553      194.01039      855.13081    
     35200  -114111.65      645.48908     -113466.17      195.43405      193.99249      855.49454    
     35300  -114055.08      647.51076     -113407.56      195.4125       193.97546      855.85827    
     35400  -114014.66      655.15523     -113359.51      195.39049      193.95855      856.222      
     35500  -113969.93      652.56772     -113317.36      195.36972      193.94168      856.58573    
     35600  -113925.5       647.7082      -113277.79      195.34752      193.92339      856.94946    
     35700  -113879.24      647.29546     -113231.94      195.32491      193.90526      857.3132     
     35800  -113831.28      656.43489     -113174.84      195.30449      193.88913      857.67693    
     35900  -113777.8       651.2656      -113126.53      195.28316      193.87085      858.04066    
     36000  -113736.65      653.68786     -113082.96      195.26112      193.85177      858.40439    
     36100  -113692.2       648.65505     -113043.54      195.24123      193.83533      858.76812    
     36200  -113649.65      648.70204     -113000.95      195.21969      193.81632      859.13185    
     36300  -113601.08      655.55908     -112945.52      195.19891      193.79675      859.49558    
     36400  -113553.23      660.69736     -112892.53      195.18018      193.77989      859.85931    
     36500  -113500.04      652.80458     -112847.23      195.15974      193.76092      860.22304    
     36600  -113459.35      651.59318     -112807.75      195.13911      193.74056      860.58677    
     36700  -113411.57      644.99078     -112766.57      195.12143      193.7224       860.9505     
     36800  -113366.3       650.58604     -112715.71      195.10248      193.70271      861.31423    
     36900  -113315.06      656.02531     -112659.04      195.08296      193.68263      861.67796    
     37000  -113267.88      654.09899     -112613.78      195.06644      193.66413      862.04169    
     37100  -113216.8       645.04276     -112571.76      195.04856      193.64369      862.40542    
     37200  -113176.81      647.53758     -112529.27      195.02977      193.62269      862.76916    
     37300  -113125.17      644.74975     -112480.42      195.0136       193.60335      863.13289    
     37400  -113077.81      654.78272     -112423.02      194.99701      193.58264      863.49662    
     37500  -113028.33      653.6281      -112374.7       194.97968      193.56107      863.86035    
     37600  -112983.7       652.85108     -112330.85      194.96393      193.54122      864.22408    
     37700  -112938.83      647.52815     -112291.3       194.9485       193.52057      864.58781    
     37800  -112897.09      646.682       -112250.41      194.93146      193.49802      864.95154    
     37900  -112845.39      646.20831     -112199.18      194.91614      193.47785      865.31527    
     38000  -112795.5       654.30599     -112141.19      194.90155      193.45786      865.679      
     38100  -112747.94      657.59804     -112090.34      194.8849       193.4355       866.04273    
     38200  -112695.14      650.69312     -112044.44      194.86972      193.41507      866.40646    
     38300  -112654.44      650.84453     -112003.59      194.8546       193.39485      866.77019    
     38400  -112609.17      647.55349     -111961.62      194.8382       193.37305      867.13392    
     38500  -112560.86      648.06541     -111912.8       194.82361      193.35323      867.49765    
     38600  -112508.27      655.01219     -111853.26      194.80881      193.33363      867.86138    
     38700  -112454.6       650.64055     -111803.96      194.79183      193.31247      868.22512    
     38800  -112420         659.45506     -111760.55      194.77686      193.29311      868.58885    
     38900  -112362         642.54426     -111719.46      194.76195      193.27404      868.95258    
     39000  -112322.4       648.68769     -111673.71      194.74445      193.25377      869.31631    
     39100  -112266.06      650.30012     -111615.76      194.72923      193.2358       869.68004    
     39200  -112213.23      650.88264     -111562.35      194.71337      193.21732      870.04377    
     39300  -112169.79      654.0087      -111515.78      194.69553      193.19749      870.4075     
     39400  -112120.67      646.22219     -111474.45      194.67966      193.18098      870.77123    
     39500  -112084.29      652.28475     -111432.01      194.66338      193.16349      871.13496    
     39600  -112022.58      643.90526     -111378.67      194.64468      193.14399      871.49869    
     39700  -111978.04      657.48531     -111320.55      194.62802      193.12815      871.86242    
     39800  -111926.12      653.0296      -111273.09      194.61102      193.11228      872.22615    
     39900  -111880.35      648.82468     -111231.53      194.59157      193.09336      872.58988    
     40000  -111837.38      647.97937     -111189.4       194.57416      193.07764      872.95361    
     40100  -111784.49      642.70624     -111141.78      194.55671      193.063        873.31734    
     40200  -111731.84      651.23864     -111080.61      194.53625      193.04493      873.68108    
     40300  -111686.94      655.45531     -111031.49      194.51948      193.03054      874.04481    
     40400  -111636.29      648.62146     -110987.67      194.50172      193.0165       874.40854    
     40500  -111591.37      646.36541     -110945         194.48018      192.99905      874.77227    
     40600  -111546.88      648.44376     -110898.44      194.46275      192.98506      875.136      
     40700  -111493.32      652.57313     -110840.75      194.44558      192.97239      875.49973    
     40800  -111439.91      653.53986     -110786.37      194.4238       192.95577      875.86346    
     40900  -111389.91      648.66088     -110741.25      194.40493      192.94125      876.22719    
     41000  -111348.92      650.01023     -110698.91      194.38776      192.92869      876.59092    
     41100  -111304.24      649.62576     -110654.61      194.36694      192.91302      876.95465    
     41200  -111256.45      649.34742     -110607.1       194.34771      192.89836      877.31838    
     41300  -111201.66      648.78802     -110552.87      194.33101      192.8859       877.68211    
     41400  -111149.25      652.07507     -110497.17      194.31069      192.87007      878.04584    
     41500  -111098.35      650.97637     -110447.38      194.29128      192.85495      878.40957    
     41600  -111057.14      652.91559     -110404.23      194.27475      192.84186      878.7733     
     41700  -111008.09      644.93399     -110363.15      194.2559       192.82653      879.13704    
     41800  -110965.48      651.94039     -110313.54      194.23733      192.81095      879.50077    
     41900  -110904.16      645.17319     -110258.98      194.2213       192.79768      879.8645     
     42000  -110864.35      657.23216     -110207.11      194.20321      192.78214      880.22823    
     42100  -110809.24      650.44265     -110158.8       194.18517      192.76597      880.59196    
     42200  -110760.83      649.89294     -110110.94      194.16952      192.75202      880.95569    
     42300  -110711.73      647.74165     -110063.98      194.15304      192.73684      881.31942    
     42400  -110664.81      648.07448     -110016.73      194.1361       192.72017      881.68315    
     42500  -110618.69      651.38916     -109967.3       194.12111      192.70531      882.04688    
     42600  -110564.69      653.24661     -109911.45      194.10608      192.69013      882.41061    
     42700  -110509.1       651.21955     -109857.88      194.0906       192.67347      882.77434    
     42800  -110463.42      650.05361     -109813.36      194.07642      192.65762      883.13807    
     42900  -110421.24      647.02825     -109774.21      194.06218      192.64218      883.5018     
     43000  -110377.11      652.6962      -109724.41      194.04783      192.62476      883.86553    
     43100  -110321.34      651.09252     -109670.24      194.03514      192.60891      884.22926    
     43200  -110267.94      651.4388      -109616.5       194.02214      192.59316      884.593      
     43300  -110220.76      654.18265     -109566.58      194.00891      192.57615      884.95673    
     43400  -110175.38      652.64699     -109522.74      193.99664      192.55922      885.32046    
     43500  -110126.22      641.07883     -109485.14      193.9839       192.54269      885.68419    
     43600  -110079.26      647.84602     -109431.42      193.97136      192.52598      886.04792    
     43700  -110022.66      648.37877     -109374.28      193.9596       192.50919      886.41165    
     43800  -109969.83      649.13333     -109320.7       193.94735      192.49218      886.77538    
     43900  -109917.26      648.39973     -109268.86      193.9349       192.47511      887.13911    
     44000  -109878.8       657.15476     -109221.65      193.92326      192.45841      887.50284    
     44100  -109829.05      646.85848     -109182.2       193.91149      192.44154      887.86657    
     44200  -109786.92      652.61887     -109134.3       193.89977      192.42511      888.2303     
     44300  -109724.63      647.7396      -109076.89      193.88751      192.40839      888.59403    
     44400  -109673.27      650.6583      -109022.61      193.87615      192.39196      888.95776    
     44500  -109626.33      653.71208     -108972.62      193.86475      192.37645      889.32149    
     44600  -109572.62      647.39361     -108925.23      193.85197      192.36009      889.68522    
     44700  -109527.21      645.86506     -108881.34      193.84         192.34424      890.04896    
     44800  -109484.58      646.26388     -108838.32      193.82924      192.3296       890.41269    
     44900  -109432.6       650.12146     -108782.48      193.81618      192.31389      890.77642    
     45000  -109374.64      651.32424     -108723.32      193.80358      192.29854      891.14015    
     45100  -109323.91      651.8964      -108672.01      193.79194      192.28425      891.50388    
     45200  -109277.48      653.74824     -108623.74      193.77844      192.26947      891.86761    
     45300  -109226.55      646.24619     -108580.31      193.76506      192.25467      892.23134    
     45400  -109176.98      642.42505     -108534.55      193.75317      192.24141      892.59507    
     45500  -109128.61      650.43336     -108478.18      193.73925      192.22733      892.9588     
     45600  -109072.43      654.12219     -108418.3       193.72467      192.21272      893.32253    
     45700  -109026.81      656.83642     -108369.98      193.71139      192.19959      893.68626    
     45800  -108976.9       650.05607     -108326.84      193.69757      192.18636      894.04999    
     45900  -108930.93      651.69789     -108279.23      193.68238      192.17282      894.41372    
     46000  -108874.28      646.96493     -108227.31      193.66885      192.16055      894.77745    
     46100  -108830.17      654.43669     -108175.74      193.65474      192.14836      895.14119    
     46200  -108779.86      654.50958     -108125.35      193.6388       192.13512      895.50492    
     46300  -108732.92      657.82681     -108075.09      193.62384      192.12306      895.86865    
     46400  -108672.92      648.57983     -108024.34      193.60937      192.11187      896.23238    
     46500  -108626.53      652.78834     -107973.75      193.59358      192.09951      896.59611    
     46600  -108581.15      657.05506     -107924.1       193.5777       192.08769      896.95984    
     46700  -108523.96      649.56576     -107874.39      193.56227      192.07664      897.32357    
     46800  -108475.92      650.2683      -107825.65      193.54603      192.06442      897.6873     
     46900  -108428.89      650.91999     -107777.97      193.52983      192.05278      898.05103    
     47000  -108379.02      650.82232     -107728.2       193.5142       192.04188      898.41476    
     47100  -108321.1       650.80542     -107670.3       193.49819      192.03035      898.77849    
     47200  -108268.99      655.70016     -107613.29      193.48154      192.01807      899.14222    
     47300  -108227.17      659.85239     -107567.32      193.46658      192.00744      899.50595    
     47400  -108173.15      649.95706     -107523.19      193.45053      191.99569      899.86968    
     47500  -108124.45      651.84933     -107472.6       193.43351      191.98228      900.23341    
     47600  -108077.27      655.68574     -107421.59      193.41943      191.97202      900.59715    
     47700  -108020.74      647.76175     -107372.98      193.40461      191.96096      900.96088    
     47800  -107977.8       648.67944     -107329.12      193.3874       191.94652      901.32461    
     47900  -107927.95      647.39975     -107280.55      193.37303      191.93499      901.68834    
     48000  -107869.52      649.65828     -107219.86      193.35959      191.92423      902.05207    
     48100  -107818.6       655.82866     -107162.77      193.3431       191.90932      902.4158     
     48200  -107765.13      650.27805     -107114.85      193.32868      191.89678      902.77953    
     48300  -107718.6       648.76964     -107069.83      193.31663      191.88625      903.14326    
     48400  -107671.84      650.59766     -107021.24      193.30128      191.8714       903.50699    
     48500  -107622.61      653.3997      -106969.21      193.28711      191.85777      903.87072    
     48600  -107565.29      652.40354     -106912.88      193.2752       191.84649      904.23445    
     48700  -107508.02      659.12457     -106848.9       193.26144      191.83185      904.59818    
     48800  -107459.89      659.79258     -106800.1       193.24825      191.81718      904.96191    
     48900  -107413.11      655.46049     -106757.65      193.23744      191.80594      905.32564    
     49000  -107367.5       655.19759     -106712.31      193.22423      191.79077      905.68937    
     49100  -107317.53      652.14596     -106665.38      193.21125      191.77483      906.05311    
     49200  -107266.81      651.60896     -106615.2       193.2013       191.76275      906.41684    
     49300  -107211.81      650.62724     -106561.18      193.18858      191.74731      906.78057    
     49400  -107158.83      657.88225     -106500.95      193.1757       191.73074      907.1443     
     49500  -107107.3       660.82464     -106446.48      193.1671       191.71845      907.50803    
     49600  -107056.54      652.07436     -106404.47      193.1553       191.70363      907.87176    
     49700  -107011.37      654.51165     -106356.86      193.14201      191.68604      908.23549    
     49800  -106959.16      652.44734     -106306.71      193.13322      191.67262      908.59922    
     49900  -106911.71      654.00184     -106257.71      193.12256      191.65838      908.96295    
     50000  -106857.16      646.86349     -106210.3       193.10915      191.64075      909.32668    
     50100  -106810.36      649.84971     -106160.51      193.09968      191.62648      909.69041    
     50200  -106753.15      650.11097     -106103.04      193.08964      191.61257      910.05414    
     50300  -106697.24      653.50068     -106043.74      193.07637      191.59558      910.41787    
     50400  -106645.92      655.08201     -105990.84      193.06625      191.58087      910.7816     
     50500  -106600.33      651.74535     -105948.59      193.05657      191.56744      911.14533    
     50600  -106553.04      651.87568     -105901.17      193.04332      191.55117      911.50907    
     50700  -106503.41      656.9712      -105846.44      193.03203      191.53633      911.8728     
     50800  -106440.81      652.17928     -105788.63      193.02202      191.52285      912.23653    
     50900  -106387.38      652.69202     -105734.69      193.0087       191.50685      912.60026    
     51000  -106341.5       649.70127     -105691.8       192.99696      191.49285      912.96399    
     51100  -106289.62      645.06407     -105644.56      192.98649      191.48004      913.32772    
     51200  -106240.24      648.38402     -105591.86      192.9728       191.4645       913.69145    
     51300  -106191.03      655.85946     -105535.17      192.95937      191.44985      914.05518    
     51400  -106133.91      658.35445     -105475.55      192.94864      191.43759      914.41891    
     51500  -106085.89      660.26702     -105425.62      192.93434      191.42255      914.78264    
     51600  -106034.36      651.43786     -105382.93      192.91989      191.40816      915.14637    
     51700  -105985.38      651.77077     -105333.61      192.90883      191.39689      915.5101     
     51800  -105929.81      645.2355      -105284.57      192.89458      191.38274      915.87383    
     51900  -105882.06      648.41432     -105233.65      192.87865      191.36803      916.23756    
     52000  -105835.42      655.21549     -105180.21      192.86576      191.35662      916.60129    
     52100  -105779.83      657.01246     -105122.82      192.85181      191.34382      916.96503    
     52200  -105725.13      657.52003     -105067.61      192.83568      191.32958      917.32876    
     52300  -105673.01      653.19969     -105019.81      192.82064      191.31735      917.69249    
     52400  -105626.06      651.56371     -104974.5       192.80616      191.30586      918.05622    
     52500  -105570.51      648.42558     -104922.08      192.79013      191.2927       918.41995    
     52600  -105517.66      650.32521     -104867.34      192.77354      191.2799       918.78368    
     52700  -105467.74      657.41936     -104810.32      192.75815      191.26843      919.14741    
     52800  -105412.8       658.70987     -104754.09      192.74239      191.25619      919.51114    
     52900  -105363.98      655.02855     -104708.95      192.72563      191.2437       919.87487    
     53000  -105317.79      655.80286     -104661.99      192.70923      191.23195      920.2386     
     53100  -105260.91      649.92339     -104610.99      192.69286      191.21956      920.60233    
     53200  -105211.89      653.59393     -104558.3       192.67575      191.20668      920.96606    
     53300  -105160.63      651.53636     -104509.09      192.65942      191.19497      921.32979    
     53400  -105110.55      648.73884     -104461.81      192.64325      191.18289      921.69352    
     53500  -105058.02      650.45852     -104407.56      192.62613      191.16973      922.05725    
     53600  -105002.48      658.49414     -104343.99      192.60938      191.15757      922.42099    
     53700  -104949.96      664.53728     -104285.43      192.59306      191.14479      922.78472    
     53800  -104901.59      664.00183     -104237.58      192.57696      191.13256      923.14845    
     53900  -104842.35      652.13179     -104190.22      192.56059      191.11993      923.51218    
     54000  -104795.19      652.62        -104142.57      192.54413      191.10658      923.87591    
     54100  -104747.32      653.72178     -104093.6       192.52902      191.09426      924.23964    
     54200  -104693.56      652.11741     -104041.44      192.51262      191.08066      924.60337    
     54300  -104641.54      653.28842     -103988.26      192.49665      191.06684      924.9671     
     54400  -104589.62      649.17665     -103940.44      192.48223      191.05405      925.33083    
     54500  -104537.15      646.22397     -103890.92      192.46729      191.04046      925.69456    
     54600  -104485.32      651.21188     -103834.11      192.45163      191.02592      926.05829    
     54700  -104425.22      654.99336     -103770.22      192.4368       191.01119      926.42202    
     54800  -104377.8       664.34724     -103713.45      192.42258      190.99688      926.78575    
     54900  -104321.66      656.24108     -103665.42      192.40852      190.98186      927.14948    
     55000  -104270.19      655.52212     -103614.67      192.39412      190.96633      927.51321    
     55100  -104218.66      651.73935     -103566.92      192.381        190.9517       927.87695    
     55200  -104169.05      651.53582     -103517.51      192.3669       190.93555      928.24068    
     55300  -104114.16      648.46004     -103465.7       192.35286      190.91901      928.60441    
     55400  -104065.05      652.85467     -103412.19      192.3406       190.90433      928.96814    
     55500  -104017.07      652.13471     -103364.93      192.32728      190.88749      929.33187    
     55600  -103960.16      646.01367     -103314.15      192.31304      190.86996      929.6956     
     55700  -103905.81      649.94417     -103255.86      192.30202      190.85524      930.05933    
     55800  -103850.92      656.70905     -103194.21      192.28873      190.83797      930.42306    
     55900  -103790.99      657.30156     -103133.69      192.27419      190.81928      930.78679    
     56000  -103740.81      653.39528     -103087.42      192.26288      190.80371      931.15052    
     56100  -103698.83      659.28317     -103039.55      192.25082      190.78755      931.51425    
     56200  -103639.08      649.31167     -102989.77      192.23711      190.76964      931.87798    
     56300  -103590.56      651.19219     -102939.37      192.22431      190.75221      932.24171    
     56400  -103542.36      655.94434     -102886.42      192.21262      190.7368       932.60544    
     56500  -103484.31      648.99978     -102835.31      192.19905      190.71925      932.96917    
     56600  -103431.68      643.52669     -102788.15      192.18525      190.70129      933.33291    
     56700  -103378.02      647.36376     -102730.66      192.17328      190.68552      933.69664    
     56800  -103328.16      656.51739     -102671.64      192.15977      190.66877      934.06037    
     56900  -103271.72      655.1871      -102616.53      192.14504      190.65059      934.4241     
     57000  -103219.02      656.63653     -102562.39      192.132        190.63421      934.78783    
     57100  -103169.49      659.50826     -102509.98      192.11837      190.61757      935.15156    
     57200  -103106.13      648.53668     -102457.59      192.10309      190.59971      935.51529    
     57300  -103059.3       655.24653     -102404.06      192.08992      190.58385      935.87902    
     57400  -103005.32      653.7227      -102351.6       192.07566      190.56742      936.24275    
     57500  -102952.15      653.1937      -102298.96      192.05937      190.54974      936.60648    
     57600  -102898.93      654.56549     -102244.37      192.04566      190.53483      936.97021    
     57700  -102845.34      654.14023     -102191.2       192.03064      190.51878      937.33394    
     57800  -102792.87      656.2513      -102136.62      192.01325      190.50149      937.69767    
     57900  -102737.21      654.13774     -102083.07      191.99872      190.48684      938.0614     
     58000  -102684.16      652.68064     -102031.48      191.98251      190.47114      938.42514    
     58100  -102636.28      658.59356     -101977.69      191.96477      190.45477      938.78887    
     58200  -102578.65      654.92381     -101923.73      191.94878      190.44035      939.1526     
     58300  -102522.99      652.34795     -101870.65      191.93189      190.42502      939.51633    
     58400  -102467.82      651.11583     -101816.7       191.91371      190.40867      939.88006    
     58500  -102419.03      658.16011     -101760.87      191.89732      190.39512      940.24379    
     58600  -102360.71      653.48943     -101707.22      191.87895      190.3796       940.60752    
     58700  -102307.46      653.46276     -101654         191.86033      190.36336      940.97125    
     58800  -102249.91      651.09037     -101598.82      191.84344      190.34937      941.33498    
     58900  -102200.52      655.65107     -101544.86      191.825        190.33468      941.69871    
     59000  -102147.37      656.60068     -101490.77      191.8054       190.31858      942.06244    
     59100  -102093.23      656.39319     -101436.84      191.78894      190.30506      942.42617    
     59200  -102040.05      655.83889     -101384.21      191.77043      190.29082      942.7899     
     59300  -101984.08      654.53715     -101329.54      191.74963      190.27424      943.15363    
     59400  -101924.69      649.82755     -101274.86      191.73202      190.26033      943.51736    
     59500  -101875.53      653.57368     -101221.96      191.7151       190.24756      943.8811     
     59600  -101820.37      653.4115      -101166.95      191.69347      190.23073      944.24483    
     59700  -101768.96      657.40309     -101111.55      191.67573      190.21684      944.60856    
     59800  -101714.25      656.62696     -101057.63      191.65885      190.20369      944.97229    
     59900  -101652.61      649.83887     -101002.77      191.63786      190.18658      945.33602    
     60000  -101600.85      654.72987     -100946.12      191.62002      190.17298      945.69975    
     60100  -101547.86      655.44051     -100892.42      191.60304      190.15915      946.06348    
     60200  -101494.54      656.67011     -100837.87      191.58288      190.14175      946.42721    
     60300  -101433.91      653.089       -100780.82      191.56622      190.12815      946.79094    
     60400  -101385.14      659.29622     -100725.84      191.54822      190.11297      947.15467    
     60500  -101319.18      647.8426      -100671.34      191.52915      190.09543      947.5184     
     60600  -101270.01      655.53447     -100614.47      191.5128       190.08064      947.88213    
     60700  -101214.77      654.71132     -100560.06      191.49519      190.06506      948.24586    
     60800  -101154.06      648.95238     -100505.11      191.47696      190.0472       948.60959    
     60900  -101102.58      654.57074     -100448.01      191.46132      190.0319       948.97332    
     61000  -101048.17      655.25512     -100392.92      191.443        190.01476      949.33706    
     61100  -100985.66      649.17252     -100336.49      191.42559      189.99722      949.70079    
     61200  -100935.19      655.12302     -100280.07      191.41089      189.98164      950.06452    
     61300  -100883.21      658.63876     -100224.57      191.39393      189.96444      950.42825    
     61400  -100826.07      658.34933     -100167.72      191.37637      189.9459       950.79198    
     61500  -100765.36      655.10902     -100110.25      191.36178      189.93003      951.15571    
     61600  -100708.47      654.41623     -100054.06      191.3455       189.91242      951.51944    
     61700  -100651.68      655.55531     -99996.122      191.32816      189.894        951.88317    
     61800  -100599.08      660.76343     -99938.318      191.31326      189.87699      952.2469     
     61900  -100534.81      652.98103     -99881.831      191.29748      189.85859      952.61063    
     62000  -100478.89      654.17704     -99824.716      191.28117      189.84014      952.97436    
     62100  -100425.41      658.302       -99767.113      191.26615      189.82295      953.33809    
     62200  -100364.7       655.39172     -99709.304      191.25095      189.80422      953.70182    
     62300  -100299.96      648.54167     -99651.415      191.23486      189.78491      954.06555    
     62400  -100248.12      654.30812     -99593.817      191.21994      189.76712      954.42928    
     62500  -100185.89      650.61456     -99535.275      191.20491      189.74872      954.79302    
     62600  -100133.27      655.13054     -99478.138      191.18922      189.72918      955.15675    
     62700  -100072.83      653.23431     -99419.599      191.17422      189.71065      955.52048    
     62800  -100016.44      654.72418     -99361.719      191.1589       189.69229      955.88421    
     62900  -99956.354      652.97321     -99303.381      191.14303      189.6727       956.24794    
     63000  -99900.269      655.46148     -99244.808      191.1281       189.65394      956.61167    
     63100  -99840.067      654.26815     -99185.799      191.11282      189.63567      956.9754     
     63200  -99780.825      654.89649     -99125.928      191.09596      189.61619      957.33913    
     63300  -99721.594      655.12253     -99066.471      191.08132      189.5983       957.70286    
     63400  -99658.778      653.38839     -99005.389      191.06509      189.57928      958.06659    
     63500  -99599.243      653.95029     -98945.293      191.04807      189.56023      958.43032    
     63600  -99541.535      656.01188     -98885.524      191.03243      189.54245      958.79405    
     63700  -99481.374      656.01515     -98825.359      191.01614      189.52405      959.15778    
     63800  -99422.455      657.78113     -98764.674      190.99918      189.50521      959.52151    
     63900  -99358.305      654.80252     -98703.502      190.98284      189.48765      959.88524    
     64000  -99296.903      653.77775     -98643.125      190.96613      189.46986      960.24898    
     64100  -99238.169      656.68827     -98581.481      190.9487       189.45155      960.61271    
     64200  -99168.294      647.39752     -98520.897      190.93163      189.43368      960.97644    
     64300  -99113.019      652.61318     -98460.405      190.91406      189.41601      961.34017    
     64400  -99056.532      657.92169     -98398.61       190.89668      189.39877      961.7039     
     64500  -98995.929      658.05472     -98337.874      190.8793       189.38182      962.06763    
     64600  -98930.521      655.3429      -98275.178      190.86098      189.36404      962.43136    
     64700  -98863.534      651.00123     -98212.533      190.84323      189.34725      962.79509    
     64800  -98809.344      658.30462     -98151.04       190.82507      189.33046      963.15882    
     64900  -98746.585      659.28929     -98087.296      190.80639      189.31373      963.52255    
     65000  -98682.621      658.3641      -98024.257      190.78834      189.29733      963.88628    
     65100  -98613.341      651.75688     -97961.584      190.77078      189.2812       964.25001    
     65200  -98560.259      661.89892     -97898.36       190.75166      189.26452      964.61374    
     65300  -98489.211      655.40337     -97833.808      190.73343      189.24872      964.97747    
     65400  -98426.962      656.64396     -97770.318      190.71566      189.23312      965.3412     
     65500  -98358.587      652.40665     -97706.18       190.69624      189.21625      965.70494    
     65600  -98296.643      655.46526     -97641.177      190.67768      189.20047      966.06867    
     65700  -98227.529      651.44094     -97576.089      190.6604       189.18584      966.4324     
     65800  -98164.611      653.21571     -97511.396      190.64081      189.16901      966.79613    
     65900  -98097.612      652.18703     -97445.425      190.62212      189.15324      967.15986    
     66000  -98039.938      658.90975     -97381.028      190.60467      189.13845      967.52359    
     66100  -97971.892      656.01343     -97315.879      190.58503      189.122        967.88732    
     66200  -97903.188      654.08327     -97249.105      190.56646      189.10635      968.25105    
     66300  -97834.291      650.51584     -97183.775      190.54893      189.09147      968.61478    
     66400  -97773.839      657.9641      -97115.874      190.52994      189.07534      968.97851    
     66500  -97701.534      651.699       -97049.835      190.51165      189.05989      969.34224    
     66600  -97636.508      654.09698     -96982.411      190.49367      189.0446       969.70597    
     66700  -97575.771      661.50077     -96914.27       190.47519      189.02849      970.0697     
     66800  -97506.259      660.36496     -96845.894      190.45759      189.01317      970.43343    
     66900  -97436.025      658.61031     -96777.414      190.4399       188.99778      970.79716    
     67000  -97367.119      658.94772     -96708.171      190.42115      188.98127      971.1609     
     67100  -97292.511      653.60575     -96638.905      190.40385      188.9661       971.52463    
     67200  -97233.192      662.36411     -96570.828      190.38646      188.9501       971.88836    
     67300  -97156.451      655.82218     -96500.629      190.36846      188.93322      972.25209    
     67400  -97087.755      656.79065     -96430.964      190.35144      188.91782      972.61582    
     67500  -97024.825      662.90458     -96361.921      190.33398      188.90166      972.97955    
     67600  -96949.612      657.66737     -96291.944      190.31664      188.88488      973.34328    
     67700  -96882.905      660.33931     -96222.566      190.30017      188.8688       973.70701    
     67800  -96803.538      651.37804     -96152.16       190.2833       188.85263      974.07074    
     67900  -96740.4        660.49137     -96079.909      190.26596      188.83562      974.43447    
     68000  -96667.811      659.84531     -96007.965      190.24908      188.81881      974.7982     
     68100  -96590.347      654.69404     -95935.653      190.2332       188.8025       975.16193    
     68200  -96527.488      663.31464     -95864.174      190.21642      188.7857       975.52566    
     68300  -96447.601      655.64764     -95791.954      190.19929      188.76832      975.88939    
     68400  -96381.314      661.88677     -95719.427      190.18396      188.75207      976.25312    
     68500  -96307.424      661.45322     -95645.971      190.16742      188.73447      976.61686    
     68600  -96229.924      656.83163     -95573.092      190.15096      188.71673      976.98059    
     68700  -96160.252      661.62888     -95498.623      190.13587      188.7007       977.34432    
     68800  -96087.349      660.89666     -95426.452      190.11936      188.68251      977.70805    
     68900  -96011.072      658.14042     -95352.931      190.10359      188.66461      978.07178    
     69000  -95935.737      657.98165     -95277.756      190.08885      188.648        978.43551    
     69100  -95864.168      661.78559     -95202.382      190.07224      188.62991      978.79924    
     69200  -95787.551      661.18437     -95126.367      190.05626      188.61189      979.16297    
     69300  -95711.016      658.92526     -95052.091      190.04162      188.59493      979.5267     
     69400  -95633.433      658.75537     -94974.678      190.02548      188.57669      979.89043    
     69500  -95558.266      659.96602     -94898.3        190.01003      188.55922      980.25416    
     69600  -95480.812      660.21154     -94820.6        189.99484      188.54172      980.61789    
     69700  -95405.848      661.04251     -94744.806      189.97919      188.52358      980.98162    
     69800  -95330.358      664.52975     -94665.828      189.964        188.50638      981.34535    
     69900  -95256.278      666.7997      -94589.478      189.94834      188.48852      981.70909    
     70000  -95170.901      656.81653     -94514.085      189.93315      188.47107      982.07282    
     70100  -95102.924      665.85348     -94437.07       189.91823      188.4541       982.43655    
     70200  -95021.758      665.66354     -94356.094      189.90178      188.43578      982.80028    
     70300  -94936.223      659.60819     -94276.615      189.88693      188.41893      983.16401    
     70400  -94862.109      663.88796     -94198.221      189.87197      188.40223      983.52774    
     70500  -94783.498      664.23596     -94119.262      189.85526      188.3838       983.89147    
     70600  -94698.67       659.25819     -94039.412      189.84047      188.36734      984.2552     
     70700  -94624.637      664.96052     -93959.677      189.82541      188.35087      984.61893    
     70800  -94548.965      670.07977     -93878.885      189.80857      188.33268      984.98266    
     70900  -94461.122      667.11901     -93794.002      189.79351      188.31636      985.34639    
     71000  -94380.742      668.18691     -93712.555      189.77838      188.30006      985.71012    
     71100  -94300.546      670.49716     -93630.049      189.7615       188.28227      986.07385    
     71200  -94219.893      674.4192      -93545.473      189.74622      188.26636      986.43758    
     71300  -94137.232      672.74854     -93464.484      189.7309       188.25027      986.80131    
     71400  -94052.87       673.36934     -93379.501      189.71394      188.23283      987.16505    
     71500  -93971.002      673.68871     -93297.314      189.69834      188.21711      987.52878    
     71600  -93888.633      676.06264     -93212.57       189.68249      188.20127      987.89251    
     71700  -93806.069      675.44698     -93130.622      189.66549      188.18419      988.25624    
     71800  -93723.875      675.76372     -93048.112      189.64988      188.16879      988.61997    
     71900  -93636.181      674.24403     -92961.937      189.6338       188.15298      988.9837     
     72000  -93551.313      673.22837     -92878.084      189.61631      188.13614      989.34743    
     72100  -93474.106      679.47394     -92794.632      189.60023      188.12079      989.71116    
     72200  -93384.252      676.20531     -92708.047      189.5841       188.10537      990.07489    
     72300  -93301.232      681.73147     -92619.5        189.56662      188.08882      990.43862    
     72400  -93212.89       678.90603     -92533.984      189.54995      188.07341      990.80235    
     72500  -93120.754      676.09272     -92444.662      189.53325      188.05797      991.16608    
     72600  -93041.092      681.87182     -92359.22       189.51576      188.04187      991.52981    
[...]
     81600  -121955.17      751.46335     -121203.71      189.69033      188.21065      1024.2656    
     81700  -122178.8       730.24954     -121448.55      189.71824      188.23942      1024.6293    
     81800  -122381.14      711.86855     -121669.28      189.74527      188.26752      1024.993     
     81900  -122563.62      695.93947     -121867.68      189.77277      188.29625      1025.3568    
     82000  -122725.54      681.09891     -122044.44      189.79979      188.32459      1025.7205    
     82100  -122867.46      668.06864     -122199.39      189.82663      188.35273      1026.0842    
     82200  -122987.57      656.0915      -122331.48      189.85402      188.3814       1026.448     
     82300  -123086.26      646.99666     -122439.27      189.88098      188.40963      1026.8117    
     82400  -123160.65      639.87356     -122520.78      189.9083       188.43818      1027.1754    
     82500  -123208.52      635.06462     -122573.45      189.93638      188.46745      1027.5391    
     82600  -123227.85      633.40568     -122594.45      189.96447      188.49661      1027.9029    
     82700  -123219.98      637.72849     -122582.25      189.99149      188.52469      1028.2666    
     82800  -123190.43      644.94366     -122545.48      190.01671      188.55087      1028.6303    
     82900  -123130.75      635.28316     -122495.46      190.03937      188.57439      1028.9941    
     83000  -123036.96      616.34022     -122420.62      190.06141      188.59716      1029.3578    
     83100  -122903.58      598.26532     -122305.32      190.08256      188.61886      1029.7215    
     83200  -122726.9       570.1279      -122156.77      190.10233      188.63876      1030.0853    
     83300  -122520.43      532.88681     -121987.54      190.12379      188.6597       1030.449     
     83400  -122406         604.16162     -121801.84      190.14323      188.67806      1030.8127    
     83500  -122348.67      695.94777     -121652.73      190.14979      188.68311      1031.1765    
     83600  -122369.57      738.75072     -121630.82      190.14284      188.67428      1031.5402    
     83700  -122385.91      635.06023     -121750.85      190.13853      188.66983      1031.9039    
     83800  -122426.06      599.91124     -121826.15      190.15186      188.68122      1032.2676    
     83900  -122421.91      615.90839     -121806         190.16551      188.69222      1032.6314    
     84000  -122349.35      630.44339     -121718.91      190.17682      188.69916      1032.9951    
     84100  -122292.17      680.30811     -121611.86      190.1823       188.70572      1033.3588    
     84200  -122291.65      718.90139     -121572.74      190.19817      188.72331      1033.7226    
     84300  -122337.75      680.89629     -121656.86      190.23057      188.75011      1034.0863    
     84400  -122419.64      641.72687     -121777.92      190.26179      188.76852      1034.45      
     84500  -122448.89      598.44262     -121850.45      190.2843       188.78645      1034.8138    
     84600  -122435.4       601.68212     -121833.71      190.30087      188.80043      1035.1775    
     84700  -122392.37      655.93493     -121736.44      190.31999      188.82229      1035.5412    
     84800  -122356.84      701.47742     -121655.36      190.34665      188.8442       1035.905     
     84900  -122344.26      671.41153     -121672.85      190.35991      188.85221      1036.2687    
     85000  -122356.32      626.52169     -121729.8       190.37805      188.86613      1036.6324    
     85100  -122368.48      621.19003     -121747.29      190.39536      188.88325      1036.9961    
     85200  -122349.78      632.43081     -121717.35      190.41598      188.89509      1037.3599    
     85300  -122327.33      667.90839     -121659.42      190.4401       188.90715      1037.7236    
     85400  -122321.31      686.0154      -121635.3       190.46379      188.93201      1038.0873    
     85500  -122325.74      654.72211     -121671.02      190.4897       188.95214      1038.4511    
     85600  -122329.03      614.88801     -121714.15      190.51942      188.97085      1038.8148    
     85700  -122324.24      628.44212     -121695.8       190.54191      188.99105      1039.1785    
     85800  -122312.88      669.7966      -121643.09      190.57         189.01588      1039.5423    
     85900  -122313.23      685.24201     -121627.98      190.59438      189.03856      1039.906     
     86000  -122332.88      657.80201     -121675.08      190.61814      189.06112      1040.2697    
     86100  -122365.64      631.64231     -121734         190.64598      189.08881      1040.6335    
     86200  -122375.01      621.87607     -121753.13      190.67884      189.11517      1040.9972    
     86300  -122367.57      648.8048      -121718.76      190.70971      189.13716      1041.3609    
     86400  -122342         668.7338      -121673.26      190.74635      189.16133      1041.7246    
     86500  -122340.66      673.25217     -121667.41      190.78355      189.18588      1042.0884    
     86600  -122345.99      642.61776     -121703.37      190.82099      189.2087       1042.4521    
     86700  -122361.42      633.24866     -121728.17      190.86307      189.22681      1042.8158    
     86800  -122354.79      635.83904     -121718.95      190.90223      189.24484      1043.1796    
     86900  -122335.6       655.19655     -121680.4       190.93955      189.26602      1043.5433    
     87000  -122322.16      668.34732     -121653.81      190.98452      189.29021      1043.907     
     87100  -122341.62      668.03267     -121673.58      191.02956      189.30955      1044.2708    
     87200  -122371.35      649.93157     -121721.42      191.07393      189.32601      1044.6345    
     87300  -122388.29      630.83319     -121757.45      191.12123      189.34734      1044.9982    
     87400  -122390.11      633.09166     -121757.02      191.16249      189.36034      1045.362     
     87500  -122379.37      651.60411     -121727.76      191.20641      189.37155      1045.7257    
     87600  -122368.07      665.71661     -121702.35      191.24235      189.38138      1046.0894    
     87700  -122372.22      668.34547     -121703.88      191.27478      189.38195      1046.4531    
     87800  -122377.28      650.66186     -121726.62      191.31565      189.38643      1046.8169    
     87900  -122378.53      634.71444     -121743.82      191.35069      189.39141      1047.1806    
     88000  -122373.8       635.72821     -121738.07      191.38709      189.38763      1047.5443    
     88100  -122368.33      657.60364     -121710.73      191.42039      189.38191      1047.9081    
     88200  -122363.02      667.31543     -121695.71      191.45347      189.38015      1048.2718    
     88300  -122356.29      646.07596     -121710.21      191.48177      189.37524      1048.6355    
     88400  -122363.54      635.05761     -121728.48      191.51297      189.36802      1048.9993    
     88500  -122379.87      647.33194     -121732.54      191.54892      189.36321      1049.363     
     88600  -122384.85      656.73391     -121728.12      191.58321      189.36629      1049.7267    
     88700  -122378.29      654.99614     -121723.3       191.61478      189.36415      1050.0905    
     88800  -122384.1       660.96682     -121723.13      191.65104      189.36072      1050.4542    
     88900  -122376.89      646.376       -121730.51      191.68476      189.36262      1050.8179    
     89000  -122380.92      643.1431      -121737.78      191.71702      189.36579      1051.1816    
     89100  -122379.59      642.76954     -121736.82      191.75153      189.36746      1051.5454    
     89200  -122387.19      655.3023      -121731.89      191.7874       189.37098      1051.9091    
     89300  -122384.22      653.60684     -121730.62      191.81591      189.37654      1052.2728    
     89400  -122388.98      653.16247     -121735.82      191.83868      189.38257      1052.6366    
     89500  -122392.07      648.90567     -121743.16      191.86265      189.39504      1053.0003    
     89600  -122400.3       650.58396     -121749.71      191.88467      189.40904      1053.364     
     89700  -122410.18      657.15411     -121753.03      191.89935      189.41779      1053.7278    
     89800  -122405.75      650.66224     -121755.09      191.91736      189.42489      1054.0915    
     89900  -122402.93      652.99181     -121749.94      191.93367      189.43223      1054.4552    
     90000  -122405.8       656.42253     -121749.38      191.94948      189.44061      1054.819     
     90100  -122410.16      651.41768     -121758.74      191.96414      189.45063      1055.1827    
     90200  -122418.5       646.75044     -121771.75      191.9732       189.45821      1055.5464    
     90300  -122426.05      650.39713     -121775.65      191.98615      189.46075      1055.9101    
     90400  -122414.83      644.4031      -121770.43      192.00579      189.46446      1056.2739    
     90500  -122424.86      656.04702     -121768.81      192.02722      189.47008      1056.6376    
     90600  -122420.98      646.48639     -121774.49      192.04422      189.47092      1057.0013    
     90700  -122422.88      646.41361     -121776.46      192.0612       189.47575      1057.3651    
     90800  -122427.65      655.08173     -121772.57      192.07648      189.48044      1057.7288    
     90900  -122423.42      652.65508     -121770.77      192.08333      189.48754      1058.0925    
     91000  -122425.84      652.0419      -121773.8       192.08402      189.49519      1058.4563    
     91100  -122425.18      647.09108     -121778.08      192.08359      189.50099      1058.82      
     91200  -122421.94      646.74427     -121775.19      192.07763      189.5088       1059.1837    
     91300  -122419.47      653.92126     -121765.55      192.06648      189.51826      1059.5474    
     91400  -122410.26      652.86958     -121757.39      192.05493      189.5264       1059.9112    
     91500  -122418.13      656.99461     -121761.13      192.04977      189.53477      1060.2749    
     91600  -122412.23      639.36956     -121772.86      192.04276      189.54132      1060.6386    
     91700  -122426.28      649.35785     -121776.92      192.03244      189.54495      1061.0024    
     91800  -122411.44      641.65001     -121769.79      192.02025      189.55075      1061.3661    
     91900  -122409.41      651.91737     -121757.49      192.0114       189.55505      1061.7298    
     92000  -122413.35      659.83483     -121753.51      192.00182      189.55818      1062.0936    
     92100  -122414.86      647.36264     -121767.49      191.98497      189.56102      1062.4573    
     92200  -122429.82      646.94652     -121782.87      191.96166      189.56072      1062.821     
     92300  -122430.65      639.57136     -121791.08      191.93863      189.56119      1063.1848    
     92400  -122431.05      645.87906     -121785.17      191.9198       189.56306      1063.5485    
     92500  -122428.06      655.98766     -121772.08      191.89458      189.56044      1063.9122    
     92600  -122436.18      666.94598     -121769.23      191.86939      189.55406      1064.2759    
     92700  -122447.1       658.25        -121788.85      191.84388      189.54727      1064.6397    
     92800  -122455.89      640.99939     -121814.89      191.8181       189.54147      1065.0034    
     92900  -122460.32      639.63773     -121820.68      191.78916      189.53673      1065.3671    
     93000  -122461.8       653.98892     -121807.81      191.75612      189.53332      1065.7309    
     93100  -122463.22      665.16564     -121798.05      191.72543      189.52758      1066.0946    
     93200  -122463.93      652.68108     -121811.25      191.69365      189.52146      1066.4583    
     93300  -122484.05      648.18978     -121835.86      191.65312      189.5144       1066.8221    
     93400  -122481.91      633.96394     -121847.95      191.6192       189.50912      1067.1858    
     93500  -122483.91      647.61604     -121836.3       191.59013      189.50355      1067.5495    
     93600  -122473.48      658.17972     -121815.3       191.55922      189.49539      1067.9133    
     93700  -122477.5       666.31819     -121811.18      191.53026      189.48607      1068.277     
     93800  -122484.39      654.48769     -121829.9       191.49647      189.47291      1068.6407    
     93900  -122493.7       640.95683     -121852.74      191.46105      189.46321      1069.0044    
     94000  -122497.25      638.69837     -121858.55      191.42255      189.45464      1069.3682    
     94100  -122497.65      656.34921     -121841.3       191.38202      189.44386      1069.7319    
     94200  -122484.12      659.5784      -121824.55      191.34755      189.43538      1070.0956    
     94300  -122491.33      663.50101     -121827.83      191.31616      189.42577      1070.4594    
     94400  -122503.22      654.00259     -121849.21      191.27716      189.41546      1070.8231    
     94500  -122509.92      635.68074     -121874.24      191.24066      189.40703      1071.1868    
     94600  -122530.4       643.86676     -121886.53      191.20649      189.39724      1071.5506    
     94700  -122533.6       650.24025     -121883.36      191.16906      189.38687      1071.9143    
     94800  -122532.55      656.32585     -121876.22      191.13327      189.37943      1072.278     
     94900  -122531.59      656.46195     -121875.13      191.09934      189.37311      1072.6418    
     95000  -122529.14      650.85023     -121878.29      191.06597      189.36398      1073.0055    
     95100  -122530.06      651.00009     -121879.06      191.03106      189.35412      1073.3692    
     95200  -122527.99      648.52163     -121879.47      190.99903      189.34593      1073.7329    
     95300  -122539.37      654.66988     -121884.7       190.96629      189.33811      1074.0967    
     95400  -122543.68      648.43471     -121895.24      190.93181      189.32854      1074.4604    
     95500  -122553.85      651.69876     -121902.15      190.90102      189.32307      1074.8241    
     95600  -122553.31      643.91932     -121909.39      190.8669       189.31388      1075.1879    
     95700  -122571.2       655.72708     -121915.47      190.82821      189.30209      1075.5516    
     95800  -122566.53      647.61133     -121918.92      190.78601      189.29054      1075.9153    
     95900  -122562.97      649.16475     -121913.8       190.73887      189.27886      1076.2791    
     96000  -122560.52      653.37578     -121907.14      190.69066      189.26827      1076.6428    
     96100  -122569.78      660.41063     -121909.37      190.64106      189.26033      1077.0065    
     96200  -122574.45      655.74725     -121918.7       190.58794      189.25218      1077.3703    
     96300  -122579.57      647.22819     -121932.35      190.53067      189.24419      1077.734     
     96400  -122587.45      649.0584      -121938.39      190.46708      189.23193      1078.0977    
     96500  -122583.56      653.48214     -121930.08      190.40414      189.21921      1078.4614    
     96600  -122581         660.57564     -121920.43      190.34297      189.20644      1078.8252    
     96700  -122582.92      659.71866     -121923.2       190.2798       189.19169      1079.1889    
     96800  -122592.26      652.19788     -121940.06      190.21674      189.17557      1079.5526    
     96900  -122600.42      642.422       -121958         190.15883      189.15701      1079.9164    
     97000  -122612.66      648.26051     -121964.4       190.10646      189.14038      1080.2801    
     97100  -122611.92      650.584       -121961.34      190.06073      189.12464      1080.6438    
     97200  -122604.99      650.46507     -121954.52      190.01662      189.10494      1081.0076    
     97300  -122612.46      659.70958     -121952.75      189.97938      189.08578      1081.3713    
     97400  -122617.3       656.4393      -121960.86      189.94906      189.06823      1081.735     
     97500  -122624.05      650.71008     -121973.34      189.91973      189.04574      1082.0988    
     97600  -122625.29      643.19844     -121982.09      189.89817      189.02421      1082.4625    
     97700  -122623.79      647.67653     -121976.11      189.87505      188.99899      1082.8262    
     97800  -122619.1       655.35446     -121963.75      189.85688      188.97676      1083.1899    
     97900  -122621         662.85832     -121958.14      189.84444      188.95282      1083.5537    
     98000  -122620.85      654.29128     -121966.56      189.82999      188.92332      1083.9174    
     98100  -122619.59      640.33581     -121979.25      189.82192      188.89781      1084.2811    
     98200  -122626.59      645.00152     -121981.59      189.81715      188.87451      1084.6449    
     98300  -122629.84      654.34482     -121975.49      189.81215      188.85119      1085.0086    
     98400  -122622.18      651.17197     -121971         189.81059      188.82929      1085.3723    
     98500  -122641.86      663.15792     -121978.71      189.80798      188.80724      1085.7361    
     98600  -122643.39      649.40828     -121993.98      189.8059       188.78812      1086.0998    
     98700  -122653.05      645.95046     -122007.1       189.80433      188.77159      1086.4635    
     98800  -122660.69      648.10229     -122012.59      189.79862      188.75456      1086.8272    
     98900  -122660.85      650.19877     -122010.65      189.79497      188.74136      1087.191     
     99000  -122665.49      659.09572     -122006.39      189.7883       188.73085      1087.5547    
     99100  -122658.06      650.49598     -122007.56      189.78003      188.72178      1087.9184    
     99200  -122659.63      649.59755     -122010.03      189.77093      188.71419      1088.2822    
     99300  -122665.43      652.52449     -122012.91      189.76066      188.70882      1088.6459    
     99400  -122663.03      650.2072      -122012.83      189.74776      188.70598      1089.0096    
     99500  -122657.06      647.60279     -122009.46      189.73223      188.70279      1089.3734    
     99600  -122660.94      661.3882      -121999.55      189.71527      188.69984      1089.7371    
     99700  -122641.28      650.07641     -121991.2       189.69819      188.69887      1090.1008    
     99800  -122632.45      648.52075     -121983.93      189.67869      188.6979       1090.4646    
     99900  -122630.14      654.4284      -121975.71      189.65347      188.70078      1090.8283    
    100000  -122611.95      640.44099     -121971.51      189.63161      188.70352      1091.192     
Loop time of 2650.42 on 12 procs for 100000 steps with 16800 atoms

Performance: 3.260 ns/day, 7.362 hours/ns, 37.730 timesteps/s, 633.861 katom-step/s
89.7% CPU use with 12 MPI tasks x 1 OpenMP threads

MPI task timing breakdown:
Section |  min time  |  avg time  |  max time  |%varavg| %total
---------------------------------------------------------------
Pair    | 1295.7     | 1797.8     | 2474       | 947.5 | 67.83
Neigh   | 3.9335     | 8.3272     | 11.774     |  87.0 |  0.31
Comm    | 33.849     | 716.15     | 1231.3     |1471.0 | 27.02
Output  | 0.70642    | 0.76036    | 0.81985    |   3.9 |  0.03
Modify  | 57.95      | 124.52     | 164.76     | 326.2 |  4.70
Other   |            | 2.84       |            |       |  0.11

Nlocal:           1400 ave        2360 max         150 min
Histogram: 2 1 0 1 2 0 0 1 2 3
Nghost:         1954.5 ave        2977 max         724 min
Histogram: 2 0 1 1 2 0 0 1 4 1
Neighs:              0 ave           0 max           0 min
Histogram: 12 0 0 0 0 0 0 0 0 0

Total # of neighbors = 0
Ave neighs/atom = 0
Neighbor list builds = 738
Dangerous builds = 0
Total wall time: 0:44:10
