# LAMMPS data file written by OVITO Basic 3.3.5
1620 atoms
3 atom types
-100 100 xlo xhi
-100 100 ylo yhi
-2.1416495 39.0811595 zlo zhi

Masses

1 12.0107  # CNT
2 12.0107  # C60
3 12.0107  # C60

Atoms  # atomic

1 1 10.026761 0.0 0.0
2 1 9.929182 -1.395455 0.0
3 1 9.159902 -4.078251 0.0
4 1 8.503176 -5.313374 0.0
5 1 6.709213 -7.451336 0.0
6 1 5.606894 -8.312562 0.0
7 1 3.09844 -9.536017 0.0
8 1 1.741129 -9.874432 0.0
9 1 -1.048082 -9.971834 0.0
10 1 -2.425693 -9.728924 0.0
11 1 -5.013381 -8.68343 0.0
12 1 -6.173091 -7.901196 0.0
13 1 -8.11182 -5.893582 0.0
14 1 -8.853105 -4.707279 0.0
15 1 -9.807653 -2.084681 0.0
16 1 -10.002337 -0.699432 0.0
17 1 -9.807653 2.084681 0.0
18 1 -9.422074 3.429354 0.0
19 1 -8.11182 5.893582 0.0
20 1 -7.212649 6.965174 0.0
21 1 -5.013381 8.68343 0.0
22 1 -3.756091 9.296651 0.0
23 1 -1.048082 9.971834 0.0
24 1 0.349929 10.020653 0.0
25 1 3.09844 9.536017 0.0
26 1 4.395443 9.011993 0.0
27 1 6.709213 7.451336 0.0
28 1 7.680945 6.445078 0.0
29 1 9.159902 4.078251 0.0
30 1 9.638342 2.76375 0.0
31 1 9.807653 -2.084681 1.212436
32 1 9.422074 -3.429354 1.212436
33 1 8.11182 -5.893582 1.212436
34 1 7.212649 -6.965174 1.212436
35 1 5.013381 -8.68343 1.212436
36 1 3.756091 -9.296651 1.212436
37 1 1.048082 -9.971834 1.212436
38 1 -0.349929 -10.020653 1.212436
39 1 -3.09844 -9.536017 1.212436
40 1 -4.395443 -9.011993 1.212436
41 1 -6.709213 -7.451336 1.212436
42 1 -7.680945 -6.445078 1.212436
43 1 -9.159902 -4.078251 1.212436
44 1 -9.638342 -2.76375 1.212436
45 1 -10.026761 0.0 1.212436
46 1 -9.929182 1.395455 1.212436
47 1 -9.159902 4.078251 1.212436
48 1 -8.503176 5.313374 1.212436
49 1 -6.709213 7.451336 1.212436
50 1 -5.606894 8.312562 1.212436
51 1 -3.09844 9.536017 1.212436
52 1 -1.741129 9.874432 1.212436
53 1 1.048082 9.971834 1.212436
54 1 2.425693 9.728924 1.212436
55 1 5.013381 8.68343 1.212436
56 1 6.173091 7.901196 1.212436
57 1 8.11182 5.893582 1.212436
58 1 8.853105 4.707279 1.212436
59 1 9.807653 2.084681 1.212436
60 1 10.002337 0.699432 1.212436
61 1 9.159902 -4.078251 2.424871
62 1 8.503176 -5.313374 2.424871
63 1 6.709213 -7.451336 2.424871
64 1 5.606894 -8.312562 2.424871
65 1 3.09844 -9.536017 2.424871
66 1 1.741129 -9.874432 2.424871
67 1 -1.048082 -9.971834 2.424871
68 1 -2.425693 -9.728924 2.424871
69 1 -5.013381 -8.68343 2.424871
70 1 -6.173091 -7.901196 2.424871
71 1 -8.11182 -5.893582 2.424871
72 1 -8.853105 -4.707279 2.424871
73 1 -9.807653 -2.084681 2.424871
74 1 -10.002337 -0.699432 2.424871
75 1 -9.807653 2.084681 2.424871
76 1 -9.422074 3.429354 2.424871
77 1 -8.11182 5.893582 2.424871
78 1 -7.212649 6.965174 2.424871
79 1 -5.013381 8.68343 2.424871
80 1 -3.756091 9.296651 2.424871
81 1 -1.048082 9.971834 2.424871
82 1 0.349929 10.020653 2.424871
83 1 3.09844 9.536017 2.424871
84 1 4.395443 9.011993 2.424871
85 1 6.709213 7.451336 2.424871
86 1 7.680945 6.445078 2.424871
87 1 9.159902 4.078251 2.424871
88 1 9.638342 2.76375 2.424871
89 1 10.026761 0.0 2.424871
90 1 9.929182 -1.395455 2.424871
91 1 8.11182 -5.893582 3.637307
92 1 7.212649 -6.965174 3.637307
93 1 5.013381 -8.68343 3.637307
94 1 3.756091 -9.296651 3.637307
95 1 1.048082 -9.971834 3.637307
96 1 -0.349929 -10.020653 3.637307
97 1 -3.09844 -9.536017 3.637307
98 1 -4.395443 -9.011993 3.637307
99 1 -6.709213 -7.451336 3.637307
100 1 -7.680945 -6.445078 3.637307
101 1 -9.159902 -4.078251 3.637307
102 1 -9.638342 -2.76375 3.637307
103 1 -10.026761 0.0 3.637307
104 1 -9.929182 1.395455 3.637307
105 1 -9.159902 4.078251 3.637307
106 1 -8.503176 5.313374 3.637307
107 1 -6.709213 7.451336 3.637307
108 1 -5.606894 8.312562 3.637307
109 1 -3.09844 9.536017 3.637307
110 1 -1.741129 9.874432 3.637307
111 1 1.048082 9.971834 3.637307
112 1 2.425693 9.728924 3.637307
113 1 5.013381 8.68343 3.637307
114 1 6.173091 7.901196 3.637307
115 1 8.11182 5.893582 3.637307
116 1 8.853105 4.707279 3.637307
117 1 9.807653 2.084681 3.637307
118 1 10.002337 0.699432 3.637307
119 1 9.807653 -2.084681 3.637307
120 1 9.422074 -3.429354 3.637307
121 1 6.709213 -7.451336 4.849742
122 1 5.606894 -8.312562 4.849742
123 1 3.09844 -9.536017 4.849742
124 1 1.741129 -9.874432 4.849742
125 1 -1.048082 -9.971834 4.849742
126 1 -2.425693 -9.728924 4.849742
127 1 -5.013381 -8.68343 4.849742
128 1 -6.173091 -7.901196 4.849742
129 1 -8.11182 -5.893582 4.849742
130 1 -8.853105 -4.707279 4.849742
131 1 -9.807653 -2.084681 4.849742
132 1 -10.002337 -0.699432 4.849742
133 1 -9.807653 2.084681 4.849742
134 1 -9.422074 3.429354 4.849742
135 1 -8.11182 5.893582 4.849742
136 1 -7.212649 6.965174 4.849742
137 1 -5.013381 8.68343 4.849742
138 1 -3.756091 9.296651 4.849742
139 1 -1.048082 9.971834 4.849742
140 1 0.349929 10.020653 4.849742
141 1 3.09844 9.536017 4.849742
142 1 4.395443 9.011993 4.849742
143 1 6.709213 7.451336 4.849742
144 1 7.680945 6.445078 4.849742
145 1 9.159902 4.078251 4.849742
146 1 9.638342 2.76375 4.849742
147 1 10.026761 0.0 4.849742
148 1 9.929182 -1.395455 4.849742
149 1 9.159902 -4.078251 4.849742
150 1 8.503176 -5.313374 4.849742
151 1 5.013381 -8.68343 6.062178
152 1 3.756091 -9.296651 6.062178
153 1 1.048082 -9.971834 6.062178
154 1 -0.349929 -10.020653 6.062178
155 1 -3.09844 -9.536017 6.062178
156 1 -4.395443 -9.011993 6.062178
157 1 -6.709213 -7.451336 6.062178
158 1 -7.680945 -6.445078 6.062178
159 1 -9.159902 -4.078251 6.062178
160 1 -9.638342 -2.76375 6.062178
161 1 -10.026761 0.0 6.062178
162 1 -9.929182 1.395455 6.062178
163 1 -9.159902 4.078251 6.062178
164 1 -8.503176 5.313374 6.062178
165 1 -6.709213 7.451336 6.062178
166 1 -5.606894 8.312562 6.062178
167 1 -3.09844 9.536017 6.062178
168 1 -1.741129 9.874432 6.062178
169 1 1.048082 9.971834 6.062178
170 1 2.425693 9.728924 6.062178
171 1 5.013381 8.68343 6.062178
172 1 6.173091 7.901196 6.062178
173 1 8.11182 5.893582 6.062178
174 1 8.853105 4.707279 6.062178
175 1 9.807653 2.084681 6.062178
176 1 10.002337 0.699432 6.062178
177 1 9.807653 -2.084681 6.062178
178 1 9.422074 -3.429354 6.062178
179 1 8.11182 -5.893582 6.062178
180 1 7.212649 -6.965174 6.062178
181 1 3.09844 -9.536017 7.274613
182 1 1.741129 -9.874432 7.274613
183 1 -1.048082 -9.971834 7.274613
184 1 -2.425693 -9.728924 7.274613
185 1 -5.013381 -8.68343 7.274613
186 1 -6.173091 -7.901196 7.274613
187 1 -8.11182 -5.893582 7.274613
188 1 -8.853105 -4.707279 7.274613
189 1 -9.807653 -2.084681 7.274613
190 1 -10.002337 -0.699432 7.274613
191 1 -9.807653 2.084681 7.274613
192 1 -9.422074 3.429354 7.274613
193 1 -8.11182 5.893582 7.274613
194 1 -7.212649 6.965174 7.274613
195 1 -5.013381 8.68343 7.274613
196 1 -3.756091 9.296651 7.274613
197 1 -1.048082 9.971834 7.274613
198 1 0.349929 10.020653 7.274613
199 1 3.09844 9.536017 7.274613
200 1 4.395443 9.011993 7.274613
201 1 6.709213 7.451336 7.274613
202 1 7.680945 6.445078 7.274613
203 1 9.159902 4.078251 7.274613
204 1 9.638342 2.76375 7.274613
205 1 10.026761 0.0 7.274613
206 1 9.929182 -1.395455 7.274613
207 1 9.159902 -4.078251 7.274613
208 1 8.503176 -5.313374 7.274613
209 1 6.709213 -7.451336 7.274613
210 1 5.606894 -8.312562 7.274613
211 1 1.048082 -9.971834 8.487049
212 1 -0.349929 -10.020653 8.487049
213 1 -3.09844 -9.536017 8.487049
214 1 -4.395443 -9.011993 8.487049
215 1 -6.709213 -7.451336 8.487049
216 1 -7.680945 -6.445078 8.487049
217 1 -9.159902 -4.078251 8.487049
218 1 -9.638342 -2.76375 8.487049
219 1 -10.026761 0.0 8.487049
220 1 -9.929182 1.395455 8.487049
221 1 -9.159902 4.078251 8.487049
222 1 -8.503176 5.313374 8.487049
223 1 -6.709213 7.451336 8.487049
224 1 -5.606894 8.312562 8.487049
225 1 -3.09844 9.536017 8.487049
226 1 -1.741129 9.874432 8.487049
227 1 1.048082 9.971834 8.487049
228 1 2.425693 9.728924 8.487049
229 1 5.013381 8.68343 8.487049
230 1 6.173091 7.901196 8.487049
231 1 8.11182 5.893582 8.487049
232 1 8.853105 4.707279 8.487049
233 1 9.807653 2.084681 8.487049
234 1 10.002337 0.699432 8.487049
235 1 9.807653 -2.084681 8.487049
236 1 9.422074 -3.429354 8.487049
237 1 8.11182 -5.893582 8.487049
238 1 7.212649 -6.965174 8.487049
239 1 5.013381 -8.68343 8.487049
240 1 3.756091 -9.296651 8.487049
241 1 -1.048082 -9.971834 9.699485
242 1 -2.425693 -9.728924 9.699485
243 1 -5.013381 -8.68343 9.699485
244 1 -6.173091 -7.901196 9.699485
245 1 -8.11182 -5.893582 9.699485
246 1 -8.853105 -4.707279 9.699485
247 1 -9.807653 -2.084681 9.699485
248 1 -10.002337 -0.699432 9.699485
249 1 -9.807653 2.084681 9.699485
250 1 -9.422074 3.429354 9.699485
251 1 -8.11182 5.893582 9.699485
252 1 -7.212649 6.965174 9.699485
253 1 -5.013381 8.68343 9.699485
254 1 -3.756091 9.296651 9.699485
255 1 -1.048082 9.971834 9.699485
256 1 0.349929 10.020653 9.699485
257 1 3.09844 9.536017 9.699485
258 1 4.395443 9.011993 9.699485
259 1 6.709213 7.451336 9.699485
260 1 7.680945 6.445078 9.699485
261 1 9.159902 4.078251 9.699485
262 1 9.638342 2.76375 9.699485
263 1 10.026761 0.0 9.699485
264 1 9.929182 -1.395455 9.699485
265 1 9.159902 -4.078251 9.699485
266 1 8.503176 -5.313374 9.699485
267 1 6.709213 -7.451336 9.699485
268 1 5.606894 -8.312562 9.699485
269 1 3.09844 -9.536017 9.699485
270 1 1.741129 -9.874432 9.699485
271 1 -3.09844 -9.536017 10.91192
272 1 -4.395443 -9.011993 10.91192
273 1 -6.709213 -7.451336 10.91192
274 1 -7.680945 -6.445078 10.91192
275 1 -9.159902 -4.078251 10.91192
276 1 -9.638342 -2.76375 10.91192
277 1 -10.026761 0.0 10.91192
278 1 -9.929182 1.395455 10.91192
279 1 -9.159902 4.078251 10.91192
280 1 -8.503176 5.313374 10.91192
281 1 -6.709213 7.451336 10.91192
282 1 -5.606894 8.312562 10.91192
283 1 -3.09844 9.536017 10.91192
284 1 -1.741129 9.874432 10.91192
285 1 1.048082 9.971834 10.91192
286 1 2.425693 9.728924 10.91192
287 1 5.013381 8.68343 10.91192
288 1 6.173091 7.901196 10.91192
289 1 8.11182 5.893582 10.91192
290 1 8.853105 4.707279 10.91192
291 1 9.807653 2.084681 10.91192
292 1 10.002337 0.699432 10.91192
293 1 9.807653 -2.084681 10.91192
294 1 9.422074 -3.429354 10.91192
295 1 8.11182 -5.893582 10.91192
296 1 7.212649 -6.965174 10.91192
297 1 5.013381 -8.68343 10.91192
298 1 3.756091 -9.296651 10.91192
299 1 1.048082 -9.971834 10.91192
300 1 -0.349929 -10.020653 10.91192
301 1 -5.013381 -8.68343 12.124356
302 1 -6.173091 -7.901196 12.124356
303 1 -8.11182 -5.893582 12.124356
304 1 -8.853105 -4.707279 12.124356
305 1 -9.807653 -2.084681 12.124356
306 1 -10.002337 -0.699432 12.124356
307 1 -9.807653 2.084681 12.124356
308 1 -9.422074 3.429354 12.124356
309 1 -8.11182 5.893582 12.124356
310 1 -7.212649 6.965174 12.124356
311 1 -5.013381 8.68343 12.124356
312 1 -3.756091 9.296651 12.124356
313 1 -1.048082 9.971834 12.124356
314 1 0.349929 10.020653 12.124356
315 1 3.09844 9.536017 12.124356
316 1 4.395443 9.011993 12.124356
317 1 6.709213 7.451336 12.124356
318 1 7.680945 6.445078 12.124356
319 1 9.159902 4.078251 12.124356
320 1 9.638342 2.76375 12.124356
321 1 10.026761 0.0 12.124356
322 1 9.929182 -1.395455 12.124356
323 1 9.159902 -4.078251 12.124356
324 1 8.503176 -5.313374 12.124356
325 1 6.709213 -7.451336 12.124356
326 1 5.606894 -8.312562 12.124356
327 1 3.09844 -9.536017 12.124356
328 1 1.741129 -9.874432 12.124356
329 1 -1.048082 -9.971834 12.124356
330 1 -2.425693 -9.728924 12.124356
331 1 -6.709213 -7.451336 13.336791
332 1 -7.680945 -6.445078 13.336791
333 1 -9.159902 -4.078251 13.336791
334 1 -9.638342 -2.76375 13.336791
335 1 -10.026761 0.0 13.336791
336 1 -9.929182 1.395455 13.336791
337 1 -9.159902 4.078251 13.336791
338 1 -8.503176 5.313374 13.336791
339 1 -6.709213 7.451336 13.336791
340 1 -5.606894 8.312562 13.336791
341 1 -3.09844 9.536017 13.336791
342 1 -1.741129 9.874432 13.336791
343 1 1.048082 9.971834 13.336791
344 1 2.425693 9.728924 13.336791
345 1 5.013381 8.68343 13.336791
346 1 6.173091 7.901196 13.336791
347 1 8.11182 5.893582 13.336791
348 1 8.853105 4.707279 13.336791
349 1 9.807653 2.084681 13.336791
350 1 10.002337 0.699432 13.336791
351 1 9.807653 -2.084681 13.336791
352 1 9.422074 -3.429354 13.336791
353 1 8.11182 -5.893582 13.336791
354 1 7.212649 -6.965174 13.336791
355 1 5.013381 -8.68343 13.336791
356 1 3.756091 -9.296651 13.336791
357 1 1.048082 -9.971834 13.336791
358 1 -0.349929 -10.020653 13.336791
359 1 -3.09844 -9.536017 13.336791
360 1 -4.395443 -9.011993 13.336791
361 1 -8.11182 -5.893582 14.549227
362 1 -8.853105 -4.707279 14.549227
363 1 -9.807653 -2.084681 14.549227
364 1 -10.002337 -0.699432 14.549227
365 1 -9.807653 2.084681 14.549227
366 1 -9.422074 3.429354 14.549227
367 1 -8.11182 5.893582 14.549227
368 1 -7.212649 6.965174 14.549227
369 1 -5.013381 8.68343 14.549227
370 1 -3.756091 9.296651 14.549227
371 1 -1.048082 9.971834 14.549227
372 1 0.349929 10.020653 14.549227
373 1 3.09844 9.536017 14.549227
374 1 4.395443 9.011993 14.549227
375 1 6.709213 7.451336 14.549227
376 1 7.680945 6.445078 14.549227
377 1 9.159902 4.078251 14.549227
378 1 9.638342 2.76375 14.549227
379 1 10.026761 0.0 14.549227
380 1 9.929182 -1.395455 14.549227
381 1 9.159902 -4.078251 14.549227
382 1 8.503176 -5.313374 14.549227
383 1 6.709213 -7.451336 14.549227
384 1 5.606894 -8.312562 14.549227
385 1 3.09844 -9.536017 14.549227
386 1 1.741129 -9.874432 14.549227
387 1 -1.048082 -9.971834 14.549227
388 1 -2.425693 -9.728924 14.549227
389 1 -5.013381 -8.68343 14.549227
390 1 -6.173091 -7.901196 14.549227
391 1 -9.159902 -4.078251 15.761662
392 1 -9.638342 -2.76375 15.761662
393 1 -10.026761 0.0 15.761662
394 1 -9.929182 1.395455 15.761662
395 1 -9.159902 4.078251 15.761662
396 1 -8.503176 5.313374 15.761662
397 1 -6.709213 7.451336 15.761662
398 1 -5.606894 8.312562 15.761662
399 1 -3.09844 9.536017 15.761662
400 1 -1.741129 9.874432 15.761662
401 1 1.048082 9.971834 15.761662
402 1 2.425693 9.728924 15.761662
403 1 5.013381 8.68343 15.761662
404 1 6.173091 7.901196 15.761662
405 1 8.11182 5.893582 15.761662
406 1 8.853105 4.707279 15.761662
407 1 9.807653 2.084681 15.761662
408 1 10.002337 0.699432 15.761662
409 1 9.807653 -2.084681 15.761662
410 1 9.422074 -3.429354 15.761662
411 1 8.11182 -5.893582 15.761662
412 1 7.212649 -6.965174 15.761662
413 1 5.013381 -8.68343 15.761662
414 1 3.756091 -9.296651 15.761662
415 1 1.048082 -9.971834 15.761662
416 1 -0.349929 -10.020653 15.761662
417 1 -3.09844 -9.536017 15.761662
418 1 -4.395443 -9.011993 15.761662
419 1 -6.709213 -7.451336 15.761662
420 1 -7.680945 -6.445078 15.761662
421 1 -9.807653 -2.084681 16.974098
422 1 -10.002337 -0.699432 16.974098
423 1 -9.807653 2.084681 16.974098
424 1 -9.422074 3.429354 16.974098
425 1 -8.11182 5.893582 16.974098
426 1 -7.212649 6.965174 16.974098
427 1 -5.013381 8.68343 16.974098
428 1 -3.756091 9.296651 16.974098
429 1 -1.048082 9.971834 16.974098
430 1 0.349929 10.020653 16.974098
431 1 3.09844 9.536017 16.974098
432 1 4.395443 9.011993 16.974098
433 1 6.709213 7.451336 16.974098
434 1 7.680945 6.445078 16.974098
435 1 9.159902 4.078251 16.974098
436 1 9.638342 2.76375 16.974098
437 1 10.026761 0.0 16.974098
438 1 9.929182 -1.395455 16.974098
439 1 9.159902 -4.078251 16.974098
440 1 8.503176 -5.313374 16.974098
441 1 6.709213 -7.451336 16.974098
442 1 5.606894 -8.312562 16.974098
443 1 3.09844 -9.536017 16.974098
444 1 1.741129 -9.874432 16.974098
445 1 -1.048082 -9.971834 16.974098
446 1 -2.425693 -9.728924 16.974098
447 1 -5.013381 -8.68343 16.974098
448 1 -6.173091 -7.901196 16.974098
449 1 -8.11182 -5.893582 16.974098
450 1 -8.853105 -4.707279 16.974098
451 1 -10.026761 0.0 18.186533
452 1 -9.929182 1.395455 18.186533
453 1 -9.159902 4.078251 18.186533
454 1 -8.503176 5.313374 18.186533
455 1 -6.709213 7.451336 18.186533
456 1 -5.606894 8.312562 18.186533
457 1 -3.09844 9.536017 18.186533
458 1 -1.741129 9.874432 18.186533
459 1 1.048082 9.971834 18.186533
460 1 2.425693 9.728924 18.186533
461 1 5.013381 8.68343 18.186533
462 1 6.173091 7.901196 18.186533
463 1 8.11182 5.893582 18.186533
464 1 8.853105 4.707279 18.186533
465 1 9.807653 2.084681 18.186533
466 1 10.002337 0.699432 18.186533
467 1 9.807653 -2.084681 18.186533
468 1 9.422074 -3.429354 18.186533
469 1 8.11182 -5.893582 18.186533
470 1 7.212649 -6.965174 18.186533
471 1 5.013381 -8.68343 18.186533
472 1 3.756091 -9.296651 18.186533
473 1 1.048082 -9.971834 18.186533
474 1 -0.349929 -10.020653 18.186533
475 1 -3.09844 -9.536017 18.186533
476 1 -4.395443 -9.011993 18.186533
477 1 -6.709213 -7.451336 18.186533
478 1 -7.680945 -6.445078 18.186533
479 1 -9.159902 -4.078251 18.186533
480 1 -9.638342 -2.76375 18.186533
481 1 -9.807653 2.084681 19.398969
482 1 -9.422074 3.429354 19.398969
483 1 -8.11182 5.893582 19.398969
484 1 -7.212649 6.965174 19.398969
485 1 -5.013381 8.68343 19.398969
486 1 -3.756091 9.296651 19.398969
487 1 -1.048082 9.971834 19.398969
488 1 0.349929 10.020653 19.398969
489 1 3.09844 9.536017 19.398969
490 1 4.395443 9.011993 19.398969
491 1 6.709213 7.451336 19.398969
492 1 7.680945 6.445078 19.398969
493 1 9.159902 4.078251 19.398969
494 1 9.638342 2.76375 19.398969
495 1 10.026761 0.0 19.398969
496 1 9.929182 -1.395455 19.398969
497 1 9.159902 -4.078251 19.398969
498 1 8.503176 -5.313374 19.398969
499 1 6.709213 -7.451336 19.398969
500 1 5.606894 -8.312562 19.398969
501 1 3.09844 -9.536017 19.398969
502 1 1.741129 -9.874432 19.398969
503 1 -1.048082 -9.971834 19.398969
504 1 -2.425693 -9.728924 19.398969
505 1 -5.013381 -8.68343 19.398969
506 1 -6.173091 -7.901196 19.398969
507 1 -8.11182 -5.893582 19.398969
508 1 -8.853105 -4.707279 19.398969
509 1 -9.807653 -2.084681 19.398969
510 1 -10.002337 -0.699432 19.398969
511 1 -9.159902 4.078251 20.611405
512 1 -8.503176 5.313374 20.611405
513 1 -6.709213 7.451336 20.611405
514 1 -5.606894 8.312562 20.611405
515 1 -3.09844 9.536017 20.611405
516 1 -1.741129 9.874432 20.611405
517 1 1.048082 9.971834 20.611405
518 1 2.425693 9.728924 20.611405
519 1 5.013381 8.68343 20.611405
520 1 6.173091 7.901196 20.611405
521 1 8.11182 5.893582 20.611405
522 1 8.853105 4.707279 20.611405
523 1 9.807653 2.084681 20.611405
524 1 10.002337 0.699432 20.611405
525 1 9.807653 -2.084681 20.611405
526 1 9.422074 -3.429354 20.611405
527 1 8.11182 -5.893582 20.611405
528 1 7.212649 -6.965174 20.611405
529 1 5.013381 -8.68343 20.611405
530 1 3.756091 -9.296651 20.611405
531 1 1.048082 -9.971834 20.611405
532 1 -0.349929 -10.020653 20.611405
533 1 -3.09844 -9.536017 20.611405
534 1 -4.395443 -9.011993 20.611405
535 1 -6.709213 -7.451336 20.611405
536 1 -7.680945 -6.445078 20.611405
537 1 -9.159902 -4.078251 20.611405
538 1 -9.638342 -2.76375 20.611405
539 1 -10.026761 0.0 20.611405
540 1 -9.929182 1.395455 20.611405
541 1 -8.11182 5.893582 21.82384
542 1 -7.212649 6.965174 21.82384
543 1 -5.013381 8.68343 21.82384
544 1 -3.756091 9.296651 21.82384
545 1 -1.048082 9.971834 21.82384
546 1 0.349929 10.020653 21.82384
547 1 3.09844 9.536017 21.82384
548 1 4.395443 9.011993 21.82384
549 1 6.709213 7.451336 21.82384
550 1 7.680945 6.445078 21.82384
551 1 9.159902 4.078251 21.82384
552 1 9.638342 2.76375 21.82384
553 1 10.026761 0.0 21.82384
554 1 9.929182 -1.395455 21.82384
555 1 9.159902 -4.078251 21.82384
556 1 8.503176 -5.313374 21.82384
557 1 6.709213 -7.451336 21.82384
558 1 5.606894 -8.312562 21.82384
559 1 3.09844 -9.536017 21.82384
560 1 1.741129 -9.874432 21.82384
561 1 -1.048082 -9.971834 21.82384
562 1 -2.425693 -9.728924 21.82384
563 1 -5.013381 -8.68343 21.82384
564 1 -6.173091 -7.901196 21.82384
565 1 -8.11182 -5.893582 21.82384
566 1 -8.853105 -4.707279 21.82384
567 1 -9.807653 -2.084681 21.82384
568 1 -10.002337 -0.699432 21.82384
569 1 -9.807653 2.084681 21.82384
570 1 -9.422074 3.429354 21.82384
571 1 -6.709213 7.451336 23.036276
572 1 -5.606894 8.312562 23.036276
573 1 -3.09844 9.536017 23.036276
574 1 -1.741129 9.874432 23.036276
575 1 1.048082 9.971834 23.036276
576 1 2.425693 9.728924 23.036276
577 1 5.013381 8.68343 23.036276
578 1 6.173091 7.901196 23.036276
579 1 8.11182 5.893582 23.036276
580 1 8.853105 4.707279 23.036276
581 1 9.807653 2.084681 23.036276
582 1 10.002337 0.699432 23.036276
583 1 9.807653 -2.084681 23.036276
584 1 9.422074 -3.429354 23.036276
585 1 8.11182 -5.893582 23.036276
586 1 7.212649 -6.965174 23.036276
587 1 5.013381 -8.68343 23.036276
588 1 3.756091 -9.296651 23.036276
589 1 1.048082 -9.971834 23.036276
590 1 -0.349929 -10.020653 23.036276
591 1 -3.09844 -9.536017 23.036276
592 1 -4.395443 -9.011993 23.036276
593 1 -6.709213 -7.451336 23.036276
594 1 -7.680945 -6.445078 23.036276
595 1 -9.159902 -4.078251 23.036276
596 1 -9.638342 -2.76375 23.036276
597 1 -10.026761 0.0 23.036276
598 1 -9.929182 1.395455 23.036276
599 1 -9.159902 4.078251 23.036276
600 1 -8.503176 5.313374 23.036276
601 1 -5.013381 8.68343 24.248711
602 1 -3.756091 9.296651 24.248711
603 1 -1.048082 9.971834 24.248711
604 1 0.349929 10.020653 24.248711
605 1 3.09844 9.536017 24.248711
606 1 4.395443 9.011993 24.248711
607 1 6.709213 7.451336 24.248711
608 1 7.680945 6.445078 24.248711
609 1 9.159902 4.078251 24.248711
610 1 9.638342 2.76375 24.248711
611 1 10.026761 0.0 24.248711
612 1 9.929182 -1.395455 24.248711
613 1 9.159902 -4.078251 24.248711
614 1 8.503176 -5.313374 24.248711
615 1 6.709213 -7.451336 24.248711
616 1 5.606894 -8.312562 24.248711
617 1 3.09844 -9.536017 24.248711
618 1 1.741129 -9.874432 24.248711
619 1 -1.048082 -9.971834 24.248711
620 1 -2.425693 -9.728924 24.248711
621 1 -5.013381 -8.68343 24.248711
622 1 -6.173091 -7.901196 24.248711
623 1 -8.11182 -5.893582 24.248711
624 1 -8.853105 -4.707279 24.248711
625 1 -9.807653 -2.084681 24.248711
626 1 -10.002337 -0.699432 24.248711
627 1 -9.807653 2.084681 24.248711
628 1 -9.422074 3.429354 24.248711
629 1 -8.11182 5.893582 24.248711
630 1 -7.212649 6.965174 24.248711
631 1 -3.09844 9.536017 25.461147
632 1 -1.741129 9.874432 25.461147
633 1 1.048082 9.971834 25.461147
634 1 2.425693 9.728924 25.461147
635 1 5.013381 8.68343 25.461147
636 1 6.173091 7.901196 25.461147
637 1 8.11182 5.893582 25.461147
638 1 8.853105 4.707279 25.461147
639 1 9.807653 2.084681 25.461147
640 1 10.002337 0.699432 25.461147
641 1 9.807653 -2.084681 25.461147
642 1 9.422074 -3.429354 25.461147
643 1 8.11182 -5.893582 25.461147
644 1 7.212649 -6.965174 25.461147
645 1 5.013381 -8.68343 25.461147
646 1 3.756091 -9.296651 25.461147
647 1 1.048082 -9.971834 25.461147
648 1 -0.349929 -10.020653 25.461147
649 1 -3.09844 -9.536017 25.461147
650 1 -4.395443 -9.011993 25.461147
651 1 -6.709213 -7.451336 25.461147
652 1 -7.680945 -6.445078 25.461147
653 1 -9.159902 -4.078251 25.461147
654 1 -9.638342 -2.76375 25.461147
655 1 -10.026761 0.0 25.461147
656 1 -9.929182 1.395455 25.461147
657 1 -9.159902 4.078251 25.461147
658 1 -8.503176 5.313374 25.461147
659 1 -6.709213 7.451336 25.461147
660 1 -5.606894 8.312562 25.461147
661 1 -1.048082 9.971834 26.673582
662 1 0.349929 10.020653 26.673582
663 1 3.09844 9.536017 26.673582
664 1 4.395443 9.011993 26.673582
665 1 6.709213 7.451336 26.673582
666 1 7.680945 6.445078 26.673582
667 1 9.159902 4.078251 26.673582
668 1 9.638342 2.76375 26.673582
669 1 10.026761 0.0 26.673582
670 1 9.929182 -1.395455 26.673582
671 1 9.159902 -4.078251 26.673582
672 1 8.503176 -5.313374 26.673582
673 1 6.709213 -7.451336 26.673582
674 1 5.606894 -8.312562 26.673582
675 1 3.09844 -9.536017 26.673582
676 1 1.741129 -9.874432 26.673582
677 1 -1.048082 -9.971834 26.673582
678 1 -2.425693 -9.728924 26.673582
679 1 -5.013381 -8.68343 26.673582
680 1 -6.173091 -7.901196 26.673582
681 1 -8.11182 -5.893582 26.673582
682 1 -8.853105 -4.707279 26.673582
683 1 -9.807653 -2.084681 26.673582
684 1 -10.002337 -0.699432 26.673582
685 1 -9.807653 2.084681 26.673582
686 1 -9.422074 3.429354 26.673582
687 1 -8.11182 5.893582 26.673582
688 1 -7.212649 6.965174 26.673582
689 1 -5.013381 8.68343 26.673582
690 1 -3.756091 9.296651 26.673582
691 1 1.048082 9.971834 27.886018
692 1 2.425693 9.728924 27.886018
693 1 5.013381 8.68343 27.886018
694 1 6.173091 7.901196 27.886018
695 1 8.11182 5.893582 27.886018
696 1 8.853105 4.707279 27.886018
697 1 9.807653 2.084681 27.886018
698 1 10.002337 0.699432 27.886018
699 1 9.807653 -2.084681 27.886018
700 1 9.422074 -3.429354 27.886018
701 1 8.11182 -5.893582 27.886018
702 1 7.212649 -6.965174 27.886018
703 1 5.013381 -8.68343 27.886018
704 1 3.756091 -9.296651 27.886018
705 1 1.048082 -9.971834 27.886018
706 1 -0.349929 -10.020653 27.886018
707 1 -3.09844 -9.536017 27.886018
708 1 -4.395443 -9.011993 27.886018
709 1 -6.709213 -7.451336 27.886018
710 1 -7.680945 -6.445078 27.886018
711 1 -9.159902 -4.078251 27.886018
712 1 -9.638342 -2.76375 27.886018
713 1 -10.026761 0.0 27.886018
714 1 -9.929182 1.395455 27.886018
715 1 -9.159902 4.078251 27.886018
716 1 -8.503176 5.313374 27.886018
717 1 -6.709213 7.451336 27.886018
718 1 -5.606894 8.312562 27.886018
719 1 -3.09844 9.536017 27.886018
720 1 -1.741129 9.874432 27.886018
721 1 3.09844 9.536017 29.098454
722 1 4.395443 9.011993 29.098454
723 1 6.709213 7.451336 29.098454
724 1 7.680945 6.445078 29.098454
725 1 9.159902 4.078251 29.098454
726 1 9.638342 2.76375 29.098454
727 1 10.026761 0.0 29.098454
728 1 9.929182 -1.395455 29.098454
729 1 9.159902 -4.078251 29.098454
730 1 8.503176 -5.313374 29.098454
731 1 6.709213 -7.451336 29.098454
732 1 5.606894 -8.312562 29.098454
733 1 3.09844 -9.536017 29.098454
734 1 1.741129 -9.874432 29.098454
735 1 -1.048082 -9.971834 29.098454
736 1 -2.425693 -9.728924 29.098454
737 1 -5.013381 -8.68343 29.098454
738 1 -6.173091 -7.901196 29.098454
739 1 -8.11182 -5.893582 29.098454
740 1 -8.853105 -4.707279 29.098454
741 1 -9.807653 -2.084681 29.098454
742 1 -10.002337 -0.699432 29.098454
743 1 -9.807653 2.084681 29.098454
744 1 -9.422074 3.429354 29.098454
745 1 -8.11182 5.893582 29.098454
746 1 -7.212649 6.965174 29.098454
747 1 -5.013381 8.68343 29.098454
748 1 -3.756091 9.296651 29.098454
749 1 -1.048082 9.971834 29.098454
750 1 0.349929 10.020653 29.098454
751 1 5.013381 8.68343 30.310889
752 1 6.173091 7.901196 30.310889
753 1 8.11182 5.893582 30.310889
754 1 8.853105 4.707279 30.310889
755 1 9.807653 2.084681 30.310889
756 1 10.002337 0.699432 30.310889
757 1 9.807653 -2.084681 30.310889
758 1 9.422074 -3.429354 30.310889
759 1 8.11182 -5.893582 30.310889
760 1 7.212649 -6.965174 30.310889
761 1 5.013381 -8.68343 30.310889
762 1 3.756091 -9.296651 30.310889
763 1 1.048082 -9.971834 30.310889
764 1 -0.349929 -10.020653 30.310889
765 1 -3.09844 -9.536017 30.310889
766 1 -4.395443 -9.011993 30.310889
767 1 -6.709213 -7.451336 30.310889
768 1 -7.680945 -6.445078 30.310889
769 1 -9.159902 -4.078251 30.310889
770 1 -9.638342 -2.76375 30.310889
771 1 -10.026761 0.0 30.310889
772 1 -9.929182 1.395455 30.310889
773 1 -9.159902 4.078251 30.310889
774 1 -8.503176 5.313374 30.310889
775 1 -6.709213 7.451336 30.310889
776 1 -5.606894 8.312562 30.310889
777 1 -3.09844 9.536017 30.310889
778 1 -1.741129 9.874432 30.310889
779 1 1.048082 9.971834 30.310889
780 1 2.425693 9.728924 30.310889
781 1 6.709213 7.451336 31.523325
782 1 7.680945 6.445078 31.523325
783 1 9.159902 4.078251 31.523325
784 1 9.638342 2.76375 31.523325
785 1 10.026761 0.0 31.523325
786 1 9.929182 -1.395455 31.523325
787 1 9.159902 -4.078251 31.523325
788 1 8.503176 -5.313374 31.523325
789 1 6.709213 -7.451336 31.523325
790 1 5.606894 -8.312562 31.523325
791 1 3.09844 -9.536017 31.523325
792 1 1.741129 -9.874432 31.523325
793 1 -1.048082 -9.971834 31.523325
794 1 -2.425693 -9.728924 31.523325
795 1 -5.013381 -8.68343 31.523325
796 1 -6.173091 -7.901196 31.523325
797 1 -8.11182 -5.893582 31.523325
798 1 -8.853105 -4.707279 31.523325
799 1 -9.807653 -2.084681 31.523325
800 1 -10.002337 -0.699432 31.523325
801 1 -9.807653 2.084681 31.523325
802 1 -9.422074 3.429354 31.523325
803 1 -8.11182 5.893582 31.523325
804 1 -7.212649 6.965174 31.523325
805 1 -5.013381 8.68343 31.523325
806 1 -3.756091 9.296651 31.523325
807 1 -1.048082 9.971834 31.523325
808 1 0.349929 10.020653 31.523325
809 1 3.09844 9.536017 31.523325
810 1 4.395443 9.011993 31.523325
811 1 8.11182 5.893582 32.73576
812 1 8.853105 4.707279 32.73576
813 1 9.807653 2.084681 32.73576
814 1 10.002337 0.699432 32.73576
815 1 9.807653 -2.084681 32.73576
816 1 9.422074 -3.429354 32.73576
817 1 8.11182 -5.893582 32.73576
818 1 7.212649 -6.965174 32.73576
819 1 5.013381 -8.68343 32.73576
820 1 3.756091 -9.296651 32.73576
821 1 1.048082 -9.971834 32.73576
822 1 -0.349929 -10.020653 32.73576
823 1 -3.09844 -9.536017 32.73576
824 1 -4.395443 -9.011993 32.73576
825 1 -6.709213 -7.451336 32.73576
826 1 -7.680945 -6.445078 32.73576
827 1 -9.159902 -4.078251 32.73576
828 1 -9.638342 -2.76375 32.73576
829 1 -10.026761 0.0 32.73576
830 1 -9.929182 1.395455 32.73576
831 1 -9.159902 4.078251 32.73576
832 1 -8.503176 5.313374 32.73576
833 1 -6.709213 7.451336 32.73576
834 1 -5.606894 8.312562 32.73576
835 1 -3.09844 9.536017 32.73576
836 1 -1.741129 9.874432 32.73576
837 1 1.048082 9.971834 32.73576
838 1 2.425693 9.728924 32.73576
839 1 5.013381 8.68343 32.73576
840 1 6.173091 7.901196 32.73576
841 1 9.159902 4.078251 33.948196
842 1 9.638342 2.76375 33.948196
843 1 10.026761 0.0 33.948196
844 1 9.929182 -1.395455 33.948196
845 1 9.159902 -4.078251 33.948196
846 1 8.503176 -5.313374 33.948196
847 1 6.709213 -7.451336 33.948196
848 1 5.606894 -8.312562 33.948196
849 1 3.09844 -9.536017 33.948196
850 1 1.741129 -9.874432 33.948196
851 1 -1.048082 -9.971834 33.948196
852 1 -2.425693 -9.728924 33.948196
853 1 -5.013381 -8.68343 33.948196
854 1 -6.173091 -7.901196 33.948196
855 1 -8.11182 -5.893582 33.948196
856 1 -8.853105 -4.707279 33.948196
857 1 -9.807653 -2.084681 33.948196
858 1 -10.002337 -0.699432 33.948196
859 1 -9.807653 2.084681 33.948196
860 1 -9.422074 3.429354 33.948196
861 1 -8.11182 5.893582 33.948196
862 1 -7.212649 6.965174 33.948196
863 1 -5.013381 8.68343 33.948196
864 1 -3.756091 9.296651 33.948196
865 1 -1.048082 9.971834 33.948196
866 1 0.349929 10.020653 33.948196
867 1 3.09844 9.536017 33.948196
868 1 4.395443 9.011993 33.948196
869 1 6.709213 7.451336 33.948196
870 1 7.680945 6.445078 33.948196
871 1 9.807653 2.084681 35.160631
872 1 10.002337 0.699432 35.160631
873 1 9.807653 -2.084681 35.160631
874 1 9.422074 -3.429354 35.160631
875 1 8.11182 -5.893582 35.160631
876 1 7.212649 -6.965174 35.160631