LAMMPS (2 Aug 2023 - Update 3)
OMP_NUM_THREADS environment is not set. Defaulting to 1 thread. (src/comm.cpp:98)
  using 1 OpenMP thread(s) per MPI task
Reading data file ...
  orthogonal box = (-100 -100 -2.1416495) to (100 100 39.081159)
  4 by 4 by 1 MPI processor grid
  reading atoms ...
  1620 atoms
  read_data CPU = 0.007 seconds
Replication is creating a 1x1x15 = 15 times larger system...
  orthogonal box = (-100 -100 -2.1416495) to (100 100 616.20049)
  2 by 2 by 4 MPI processor grid
  24300 atoms
  replicate CPU = 0.002 seconds
System init for write_data ...
WARNING: Communication cutoff is 0.0. No ghost atoms will be generated. Atoms may get lost. (src/comm_brick.cpp:210)
Reading airebo potential file CH.airebo with DATE: 2011-10-25
Reading airebo potential file CH.airebo with DATE: 2011-10-25
Reading airebo potential file CH.airebo with DATE: 2011-10-25
Neighbor list info ...
  update: every = 1 steps, delay = 0 steps, check = yes
  max neighbors/atom: 2000, page size: 100000
  master list distance cutoff = 13.2
  ghost atom cutoff = 13.2
  binsize = 6.6, bins = 31 31 94
  6 neighbor lists, perpetual/occasional/extra = 6 0 0
  (1) pair airebo, perpetual, skip from (5)
      attributes: full, newton on, ghost
      pair build: skip/ghost
      stencil: none
      bin: none
  (2) pair airebo, perpetual, skip from (5)
      attributes: full, newton on, ghost
      pair build: skip/ghost
      stencil: none
      bin: none
  (3) pair airebo, perpetual, skip from (5)
      attributes: full, newton on, ghost
      pair build: skip/ghost
      stencil: none
      bin: none
  (4) pair lj/cut, perpetual, skip from (6)
      attributes: half, newton on, cut 13
      pair build: skip
      stencil: none
      bin: none
  (5) neighbor class addition, perpetual
      attributes: full, newton on, ghost
      pair build: full/bin/ghost
      stencil: full/ghost/bin/3d
      bin: standard
  (6) neighbor class addition, perpetual
      attributes: half, newton on, cut 13
      pair build: half/bin/atomonly/newton
      stencil: half/bin/3d
      bin: standard
Setting up sd style minimization ...
  Unit style    : metal
  Current step  : 0
Per MPI rank memory allocation (min/avg/max) = 16.65 | 16.84 | 17.42 Mbytes
   Step          Temp          E_pair         E_mol          TotEng         Press     
         0   0             -162746.18      0             -162746.18      3997.0868    
        24   0             -174562.11      0             -174562.11      81.021641    
Loop time of 1.24852 on 16 procs for 24 steps with 24300 atoms

97.3% CPU use with 16 MPI tasks x 1 OpenMP threads

Minimization stats:
  Stopping criterion = energy tolerance
  Energy initial, next-to-last, final = 
     -162746.181446567   -174548.32046652  -174562.106456031
  Force two-norm initial, final = 3234.9991 43.669932
  Force max component initial, final = 177.24911 2.7877205
  Final line search alpha, max atom move = 0.017949923 0.050039368
  Iterations, force evaluations = 24 43

MPI task timing breakdown:
Section |  min time  |  avg time  |  max time  |%varavg| %total
---------------------------------------------------------------
Pair    | 1.045      | 1.1475     | 1.2336     |   4.4 | 91.91
Neigh   | 0          | 0          | 0          |   0.0 |  0.00
Comm    | 0.008044   | 0.09312    | 0.18905    |  15.5 |  7.46
Output  | 0          | 0          | 0          |   0.0 |  0.00
Modify  | 0          | 0          | 0          |   0.0 |  0.00
Other   |            | 0.007917   |            |       |  0.63

Nlocal:        1518.75 ave        1589 max        1420 min
Histogram: 4 0 0 0 0 0 4 4 2 2
Nghost:        5600.25 ave        5715 max        5546 min
Histogram: 6 0 4 2 0 0 0 2 0 2
Neighs:              0 ave           0 max           0 min
Histogram: 16 0 0 0 0 0 0 0 0 0

Total # of neighbors = 0
Ave neighs/atom = 0
Neighbor list builds = 0
Dangerous builds = 0
Setting up Verlet run ...
  Unit style    : metal
  Current step  : 24
  Time step     : 0.001
Per MPI rank memory allocation (min/avg/max) = 17.27 | 17.47 | 18.04 Mbytes
   Step          Temp          E_pair         E_mol          TotEng         Press          Volume    
        24   300           -174562.11      0             -173619.84      121.71322      24733685     
Loop time of 1.05763e-05 on 16 procs for 0 steps with 24300 atoms

101.1% CPU use with 16 MPI tasks x 1 OpenMP threads

MPI task timing breakdown:
Section |  min time  |  avg time  |  max time  |%varavg| %total
---------------------------------------------------------------
Pair    | 0          | 0          | 0          |   0.0 |  0.00
Neigh   | 0          | 0          | 0          |   0.0 |  0.00
Comm    | 0          | 0          | 0          |   0.0 |  0.00
Output  | 0          | 0          | 0          |   0.0 |  0.00
Modify  | 0          | 0          | 0          |   0.0 |  0.00
Other   |            | 1.058e-05  |            |       |100.00

Nlocal:        1518.75 ave        1587 max        1441 min
Histogram: 4 0 0 0 1 3 2 4 0 2
Nghost:           5600 ave        5697 max        5542 min
Histogram: 4 2 1 3 1 1 1 1 0 2
Neighs:              0 ave           0 max           0 min
Histogram: 16 0 0 0 0 0 0 0 0 0

Total # of neighbors = 0
Ave neighs/atom = 0
Neighbor list builds = 0
Dangerous builds = 0
WARNING: Dump 2 includes no atom IDs and is not sorted by ID. This may complicate post-processing tasks or visualization (src/dump.cpp:221)
Setting up Verlet run ...
  Unit style    : metal
  Current step  : 0
  Time step     : 0.001
Per MPI rank memory allocation (min/avg/max) = 18.77 | 18.97 | 19.54 Mbytes
   Step         PotEng         KinEng         TotEng           Lx             Ly             Lz      
         0  -174562.11      942.26768     -173619.84      200            200            618.34213    
       100  -174184.94      626.34644     -173558.59      199.98536      199.98639      618.65131    
       200  -174182         699.22689     -173482.77      199.91683      199.91896      618.96048    
       300  -174180.64      784.95167     -173395.69      200.0056       200.00931      619.26965    
       400  -174137.47      830.60847     -173306.86      200.0073       200.01692      619.57882    
       500  -174056.34      822.34993     -173233.99      199.91952      199.93639      619.88799    
       600  -174095.6       938.32534     -173157.28      199.97002      199.99423      620.19716    
       700  -174086.28      996.27961     -173090         199.99828      200.02942      620.50633    
       800  -174040.89      972.98872     -173067.9       199.93898      199.97439      620.8155     
       900  -173991.89      939.19317     -173052.69      199.9483       199.99348      621.12467    
      1000  -173988.09      948.04819     -173040.04      199.95754      200.00296      621.43385    
      1100  -174022.65      952.65911     -173069.99      199.96281      200.00615      621.74302    
      1200  -174027.34      933.43345     -173093.91      199.93258      199.98139      622.05219    
      1300  -174011.94      924.00081     -173087.94      199.94717      200.00181      622.36136    
      1400  -173989.4       934.48572     -173054.92      199.97121      200.02143      622.67053    
      1500  -173981.04      936.26363     -173044.77      199.93484      199.98059      622.9797     
      1600  -173992.3       936.87078     -173055.43      199.95073      200.00103      623.28887    
      1700  -174017.96      949.25261     -173068.7       199.94408      199.99424      623.59804    
      1800  -174017.1       939.53233     -173077.57      199.93989      199.99508      623.90721    
      1900  -174012.89      943.20731     -173069.68      199.93889      200.00743      624.21639    
      2000  -174000.58      946.22341     -173054.35      199.92326      199.99446      624.52556    
      2100  -173999.82      949.82568     -173049.99      199.93104      200.00093      624.83473    
      2200  -174000.49      944.34033     -173056.15      199.92567      199.99985      625.1439     
      2300  -174013.48      945.83272     -173067.65      199.92177      199.99764      625.45307    
      2400  -174013.44      936.21484     -173077.22      199.9208       199.99525      625.76224    
      2500  -174015         935.95507     -173079.04      199.92241      199.99172      626.07141    
      2600  -174011.89      941.06593     -173070.82      199.92217      199.99383      626.38058    
      2700  -174001.63      940.53591     -173061.1       199.91574      199.9895       626.68975    
      2800  -174012.1       955.55364     -173056.55      199.91189      199.99174      626.99892    
      2900  -174015.99      948.36401     -173067.63      199.91156      199.99586      627.3081     
      3000  -174018.64      936.80017     -173081.84      199.90256      199.99057      627.61727    
      3100  -174015.02      932.6315      -173082.39      199.89721      199.98982      627.92644    
      3200  -174007.49      942.53772     -173064.95      199.89684      199.99319      628.23561    
      3300  -173993.72      949.4089      -173044.31      199.89212      199.99014      628.54478    
      3400  -173977.74      945.68822     -173032.05      199.89419      199.98671      628.85395    
      3500  -173984.41      951.99098     -173032.42      199.89387      199.97941      629.16312    
      3600  -173991.73      949.22494     -173042.5       199.8924       199.97236      629.47229    
      3700  -173983.83      930.92915     -173052.9       199.89823      199.97374      629.78146    
      3800  -173981.22      933.83957     -173047.38      199.8962       199.96302      630.09064    
      3900  -173978.88      944.12919     -173034.75      199.8952       199.95412      630.39981    
      4000  -173971.06      949.50648     -173021.55      199.90055      199.94994      630.70898    
      4100  -173969.94      955.39754     -173014.54      199.90099      199.93934      631.01815    
      4200  -173956.19      935.22008     -173020.97      199.90075      199.93009      631.32732    
      4300  -173960.26      939.1229      -173021.13      199.90395      199.91904      631.63649    
      4400  -173955.23      943.36076     -173011.87      199.9082       199.9093       631.94566    
      4500  -173937.86      945.63545     -172992.23      199.91087      199.90215      632.25483    
      4600  -173923.64      950.37709     -172973.26      199.90929      199.89613      632.564      
      4700  -173916.28      946.49634     -172969.78      199.90693      199.8957       632.87318    
      4800  -173920.15      941.17625     -172978.97      199.90028      199.89617      633.18235    
      4900  -173911.67      935.29288     -172976.38      199.88623      199.89688      633.49152    
      5000  -173903.02      942.60497     -172960.41      199.87588      199.90405      633.80069    
      5100  -173882.54      942.96581     -172939.57      199.86257      199.91041      634.10986    
      5200  -173875.83      950.41166     -172925.42      199.84933      199.91146      634.41903    
      5300  -173870.92      946.6531      -172924.26      199.84136      199.91382      634.7282     
      5400  -173861.36      932.50328     -172928.85      199.83421      199.91238      635.03737    
      5500  -173846.81      929.67915     -172917.13      199.82859      199.90652      635.34654    
      5600  -173839.64      947.70593     -172891.93      199.82975      199.90008      635.65571    
      5700  -173823.07      952.31319     -172870.76      199.83144      199.89084      635.96489    
      5800  -173814.5       947.31696     -172867.18      199.8326       199.87859      636.27406    
      5900  -173805.18      931.89125     -172873.28      199.83191      199.86808      636.58323    
      6000  -173800.61      932.30164     -172868.31      199.83039      199.8581       636.8924     
      6100  -173797.55      948.84658     -172848.71      199.83038      199.85239      637.20157    
      6200  -173776.44      945.50658     -172830.93      199.82646      199.84689      637.51074    
      6300  -173767.98      947.28303     -172820.69      199.82197      199.84089      637.81991    
      6400  -173763.7       944.72998     -172818.97      199.81498      199.83548      638.12908    
      6500  -173747.42      927.35997     -172820.06      199.80533      199.829        638.43825    
      6600  -173744.39      939.67959     -172804.71      199.8007       199.82487      638.74743    
      6700  -173728.63      946.57361     -172782.05      199.79566      199.8192       639.0566     
      6800  -173708.52      943.17623     -172765.34      199.79172      199.814        639.36577    
      6900  -173691.78      939.24833     -172752.53      199.78927      199.80832      639.67494    
      7000  -173683.24      941.45046     -172741.78      199.78573      199.79797      639.98411    
      7100  -173685.38      945.34057     -172740.04      199.78648      199.78534      640.29328    
      7200  -173682.47      941.06517     -172741.41      199.78834      199.76931      640.60245    
      7300  -173671.01      933.48791     -172737.52      199.79241      199.75505      640.91162    
      7400  -173657.37      936.42523     -172720.95      199.79292      199.74374      641.22079    
      7500  -173646.68      948.86306     -172697.82      199.78575      199.7332       641.52997    
      7600  -173623.72      946.31069     -172677.41      199.78196      199.72876      641.83914    
      7700  -173606.42      945.89574     -172660.53      199.77423      199.72132      642.14831    
      7800  -173597.99      944.71227     -172653.27      199.76642      199.71367      642.45748    
      7900  -173596.73      946.69254     -172650.04      199.76063      199.70725      642.76665    
      8000  -173575.51      934.20829     -172641.3       199.75362      199.69642      643.07582    
      8100  -173571.58      945.04144     -172626.54      199.74886      199.68611      643.38499    
      8200  -173552.94      939.59792     -172613.34      199.7474       199.67592      643.69416    
      8300  -173549.9       950.12755     -172599.77      199.74317      199.66101      644.00333    
      8400  -173534.15      943.39986     -172590.75      199.74242      199.64344      644.3125     
      8500  -173526.67      942.37139     -172584.3       199.7443       199.62612      644.62168    
      8600  -173505.31      929.87608     -172575.43      199.74435      199.60546      644.93085    
      8700  -173488.78      938.02823     -172550.75      199.74755      199.59056      645.24002    
      8800  -173470.3       943.6729      -172526.63      199.74438      199.5776       645.54919    
      8900  -173457.1       943.03681     -172514.06      199.73564      199.56685      645.85836    
      9000  -173448.16      942.41413     -172505.75      199.72996      199.56247      646.16753    
      9100  -173431.08      937.13973     -172493.94      199.72303      199.55302      646.4767     
      9200  -173410.84      935.24097     -172475.6       199.71599      199.54141      646.78587    
      9300  -173392.44      950.18838     -172442.25      199.70808      199.52776      647.09504    
      9400  -173380.57      950.76009     -172429.81      199.70392      199.51708      647.40422    
      9500  -173371.48      945.1015      -172426.38      199.70077      199.50877      647.71339    
      9600  -173360.66      941.5832      -172419.08      199.69139      199.495        648.02256    
      9700  -173348.18      941.10283     -172407.08      199.68082      199.48267      648.33173    
      9800  -173335.18      942.8528      -172392.32      199.66966      199.4743       648.6409     
      9900  -173320.06      941.19525     -172378.87      199.6592       199.46842      648.95007    
     10000  -173297.54      938.39435     -172359.15      199.64921      199.46088      649.25924    
     10100  -173271.42      942.94519     -172328.48      199.64011      199.45049      649.56841    
     10200  -173243.22      937.46798     -172305.76      199.63089      199.43596      649.87758    
     10300  -173229.93      945.79069     -172284.14      199.62575      199.42228      650.18675    
     10400  -173205.84      936.99877     -172268.85      199.62231      199.4076       650.49593    
     10500  -173204.77      944.3675      -172260.4       199.61395      199.38984      650.8051     
     10600  -173186.58      934.62478     -172251.96      199.61012      199.37655      651.11427    
     10700  -173171.46      939.4309      -172232.02      199.60312      199.36504      651.42344    
     10800  -173145.04      938.3212      -172206.72      199.58752      199.35375      651.73261    
     10900  -173130.73      944.5536      -172186.18      199.58143      199.352        652.04178    
     11000  -173111.97      948.84647     -172163.12      199.5703       199.34502      652.35095    
     11100  -173089.04      945.35726     -172143.68      199.55357      199.33008      652.66012    
     11200  -173086.35      948.84851     -172137.51      199.54296      199.32081      652.96929    
     11300  -173070.48      945.09997     -172125.38      199.52662      199.30813      653.27847    
     11400  -173047.99      944.42757     -172103.56      199.51023      199.29831      653.58764    
     11500  -173021.73      942.89999     -172078.83      199.49722      199.29364      653.89681    
     11600  -173007.42      946.07577     -172061.34      199.48167      199.28517      654.20598    
     11700  -173006.37      950.08831     -172056.28      199.46759      199.27788      654.51515    
     11800  -172971         931.96953     -172039.03      199.45304      199.27024      654.82432    
     11900  -172958.16      945.2922      -172012.87      199.43695      199.25713      655.13349    
     12000  -172928.92      943.72061     -171985.2       199.42504      199.2472       655.44266    
     12100  -172912.33      947.23947     -171965.09      199.41371      199.23491      655.75183    
     12200  -172893.51      940.0838      -171953.43      199.39972      199.21958      656.06101    
     12300  -172872.09      938.29499     -171933.79      199.38828      199.20726      656.37018    
     12400  -172852.13      942.71691     -171909.41      199.37629      199.19465      656.67935    
     12500  -172819.93      937.70649     -171882.22      199.36352      199.18229      656.98852    
     12600  -172796.39      941.78592     -171854.6       199.35089      199.16978      657.29769    
     12700  -172772.69      943.65823     -171829.03      199.33804      199.15425      657.60686    
     12800  -172759.23      943.69653     -171815.53      199.32917      199.14079      657.91603    
     12900  -172741.08      935.81905     -171805.26      199.32187      199.12655      658.2252     
     13000  -172723.91      938.67361     -171785.24      199.31336      199.10801      658.53437    
     13100  -172693.32      937.19061     -171756.12      199.30324      199.09085      658.84354    
     13200  -172663.65      938.92063     -171724.72      199.29199      199.07487      659.15272    
     13300  -172645.61      942.11858     -171703.49      199.27633      199.05958      659.46189    
     13400  -172630.28      941.59094     -171688.69      199.26081      199.0478       659.77106    
     13500  -172607.88      938.42579     -171669.45      199.24662      199.03681      660.08023    
     13600  -172592.81      949.48037     -171643.33      199.23212      199.02256      660.3894     
     13700  -172555.95      949.61138     -171606.34      199.21823      199.00954      660.69857    
     13800  -172530.3       949.89297     -171580.4       199.20315      198.99338      661.00774    
     13900  -172514.34      944.63698     -171569.7       199.18778      198.97663      661.31691    
     14000  -172499.98      944.33477     -171555.65      199.17414      198.96423      661.62608    
     14100  -172481.66      942.85745     -171538.8       199.15825      198.9513       661.93526    
     14200  -172466.77      945.27828     -171521.49      199.13996      198.93754      662.24443    
     14300  -172440.68      937.73976     -171502.94      199.12134      198.92582      662.5536     
     14400  -172427.43      941.88821     -171485.55      199.10405      198.91536      662.86277    
     14500  -172402.9       939.20851     -171463.69      199.08302      198.90049      663.17194    
     14600  -172373.61      941.3386      -171432.27      199.06353      198.88447      663.48111    
     14700  -172344.13      944.18748     -171399.94      199.04663      198.86915      663.79028    
     14800  -172336.75      955.83649     -171380.92      199.03237      198.85488      664.09945    
     14900  -172306.42      941.67832     -171364.74      199.01787      198.83893      664.40862    
     15000  -172287.12      943.33892     -171343.78      199.00107      198.81988      664.7178     
     15100  -172260.57      940.76123     -171319.81      198.98555      198.80169      665.02697    
     15200  -172246.12      952.70373     -171293.42      198.97492      198.78548      665.33614    
     15300  -172219.98      943.93326     -171276.05      198.96805      198.76878      665.64531    
     15400  -172195.17      935.45935     -171259.71      198.95756      198.74589      665.95448    
     15500  -172178.76      942.66461     -171236.1       198.94658      198.72156      666.26365    
     15600  -172151.49      947.95387     -171203.54      198.93609      198.69702      666.57282    
     15700  -172124.25      952.89069     -171171.36      198.92569      198.67305      666.88199    
     15800  -172103.09      949.32887     -171153.76      198.91756      198.65366      667.19116    
     15900  -172073.39      940.21897     -171133.17      198.90659      198.63198      667.50033    
     16000  -172057.38      945.51741     -171111.86      198.89689      198.60659      667.80951    
     16100  -172040.05      949.27499     -171090.78      198.88908      198.58014      668.11868    
     16200  -172009.59      941.29982     -171068.29      198.8813       198.55388      668.42785    
     16300  -171986.49      938.50678     -171047.98      198.86931      198.52909      668.73702    
     16400  -171963.37      937.99601     -171025.38      198.85461      198.50705      669.04619    
     16500  -171930.15      941.37003     -170988.78      198.84095      198.48587      669.35536    
     16600  -171906.04      947.21041     -170958.83      198.82641      198.4613       669.66453    
     16700  -171882.43      947.62026     -170934.81      198.8124       198.4369       669.9737     
     16800  -171855.17      938.66745     -170916.5       198.8025       198.41613      670.28287    
     16900  -171832.1       931.66339     -170900.44      198.79342      198.39772      670.59205    
     17000  -171812.6       937.25757     -170875.34      198.78138      198.3787       670.90122    
     17100  -171777.27      943.31465     -170833.95      198.7677       198.35819      671.21039    
     17200  -171743.9       942.7279      -170801.17      198.75293      198.33616      671.51956    
     17300  -171712.39      942.65404     -170769.73      198.74152      198.31497      671.82873    
     17400  -171681.26      940.95365     -170740.3       198.73052      198.29393      672.1379     
     17500  -171660.51      943.092       -170717.42      198.71717      198.27127      672.44707    
     17600  -171639.86      938.06117     -170701.8       198.70272      198.24835      672.75624    
     17700  -171607.12      928.79979     -170678.32      198.68837      198.22873      673.06541    
     17800  -171582.15      938.44609     -170643.71      198.67332      198.20952      673.37459    
     17900  -171552.64      941.47863     -170611.16      198.66229      198.18937      673.68376    
     18000  -171523.84      940.55068     -170583.29      198.65031      198.16793      673.99293    
     18100  -171499.34      942.15628     -170557.18      198.63632      198.14452      674.3021     
     18200  -171476.65      939.18197     -170537.47      198.62363      198.1234       674.61127    
     18300  -171454.64      936.3082      -170518.34      198.60734      198.10121      674.92044    
     18400  -171428.32      940.17618     -170488.14      198.5899       198.08212      675.22961    
     18500  -171389.87      943.64803     -170446.22      198.57179      198.06656      675.53878    
     18600  -171359.03      941.70471     -170417.33      198.55162      198.04995      675.84795    
     18700  -171347.41      951.56358     -170395.85      198.53664      198.03507      676.15712    
     18800  -171308.99      935.73328     -170373.26      198.51984      198.01616      676.4663     
     18900  -171280.29      938.18497     -170342.1       198.50483      197.99679      676.77547    
     19000  -171246.53      937.01902     -170309.52      198.4902       197.97968      677.08464    
     19100  -171225.91      947.42767     -170278.48      198.47078      197.95972      677.39381    
     19200  -171195.39      943.56082     -170251.83      198.45254      197.94222      677.70298    
     19300  -171168.57      933.27445     -170235.3       198.43567      197.92865      678.01215    
     19400  -171146.58      937.21224     -170209.37      198.41734      197.91496      678.32132    
     19500  -171111.97      938.3393      -170173.63      198.40275      197.9038       678.63049    
     19600  -171080.19      941.93955     -170138.25      198.38298      197.88764      678.93966    
     19700  -171047.42      942.45303     -170104.96      198.36257      197.86933      679.24884    
     19800  -171018.25      946.03154     -170072.22      198.34977      197.85574      679.55801    
     19900  -170984.18      947.99544     -170036.18      198.33305      197.84033      679.86718    
     20000  -170949.89      950.64589     -169999.25      198.31558      197.82468      680.17635    
     20100  -170923.79      946.49664     -169977.3       198.29939      197.8102       680.48552    
     20200  -170901.82      943.23435     -169958.59      198.2794       197.79302      680.79469    
     20300  -170875.81      944.23051     -169931.58      198.26022      197.77518      681.10386    
     20400  -170851.22      948.22363     -169902.99      198.24133      197.75757      681.41303    
     20500  -170814.18      941.78191     -169872.4       198.22242      197.74089      681.7222     
     20600  -170783.87      946.45808     -169837.41      198.20706      197.72745      682.03137    
     20700  -170751.72      950.10935     -169801.61      198.19115      197.71139      682.34055    
     20800  -170721.33      949.56784     -169771.76      198.17752      197.6925       682.64972    
     20900  -170692.91      939.30087     -169753.61      198.16575      197.67422      682.95889    
     21000  -170669.25      943.14308     -169726.11      198.15043      197.65707      683.26806    
     21100  -170634.97      943.82945     -169691.14      198.13391      197.64373      683.57723    
     21200  -170603.67      947.55998     -169656.11      198.11488      197.63269      683.8864     
     21300  -170564.45      941.5142      -169622.93      198.09501      197.61965      684.19557    
     21400  -170536.65      937.58753     -169599.06      198.07825      197.60651      684.50474    
     21500  -170522.36      946.0237      -169576.34      198.06177      197.59164      684.81391    
     21600  -170491.63      942.3073      -169549.32      198.04666      197.57631      685.12309    
     21700  -170461.22      945.09976     -169516.12      198.03274      197.56013      685.43226    
     21800  -170417.1       942.60249     -169474.5       198.0173       197.54277      685.74143    
     21900  -170390.21      951.52307     -169438.69      198.00318      197.52475      686.0506     
     22000  -170350.83      939.00666     -169411.82      197.98933      197.50872      686.35977    
     22100  -170323.28      939.65603     -169383.62      197.97419      197.49571      686.66894    
     22200  -170302.09      946.28006     -169355.81      197.95702      197.48322      686.97811    
     22300  -170264.74      938.41921     -169326.32      197.93787      197.47007      687.28728    
     22400  -170231.99      936.27687     -169295.71      197.92138      197.45762      687.59645    
     22500  -170206.42      946.47994     -169259.94      197.90826      197.44327      687.90563    
     22600  -170167.18      949.12666     -169218.05      197.89509      197.42889      688.2148     
     22700  -170134.29      948.83466     -169185.46      197.88199      197.41466      688.52397    
     22800  -170115.82      948.83556     -169166.99      197.86921      197.40162      688.83314    
     22900  -170080.44      941.13805     -169139.31      197.85491      197.38917      689.14231    
     23000  -170052.11      941.48817     -169110.62      197.84187      197.37773      689.45148    
     23100  -170021.58      942.03114     -169079.54      197.82918      197.3648       689.76065    
     23200  -169985.97      943.43422     -169042.54      197.81415      197.3474       690.06982    
     23300  -169954.42      950.94705     -169003.48      197.80073      197.32971      690.37899    
     23400  -169925.45      946.1885      -168979.26      197.78575      197.31182      690.68816    
     23500  -169907.03      950.84665     -168956.18      197.76743      197.29533      690.99734    
     23600  -169870.24      944.70295     -168925.54      197.75025      197.28121      691.30651    
     23700  -169834.78      937.59712     -168897.18      197.7329       197.26934      691.61568    
     23800  -169818.78      944.81718     -168873.96      197.71691      197.25849      691.92485    
     23900  -169775.85      931.23585     -168844.61      197.70208      197.24651      692.23402    
     24000  -169753.88      946.06139     -168807.82      197.68686      197.23621      692.54319    
     24100  -169721.14      948.34459     -168772.8       197.67151      197.22769      692.85236    
     24200  -169683.08      945.42145     -168737.66      197.65341      197.21424      693.16153    
     24300  -169641.12      938.68881     -168702.43      197.63614      197.20234      693.4707     
     24400  -169603.06      945.58756     -168657.47      197.61778      197.19203      693.77988    
     24500  -169562.68      942.34613     -168620.34      197.59824      197.18181      694.08905    
     24600  -169540.28      948.55176     -168591.73      197.58222      197.17412      694.39822    
     24700  -169504.18      935.90681     -168568.28      197.56841      197.16362      694.70739    
     24800  -169471.56      937.11545     -168534.44      197.55442      197.15097      695.01656    
     24900  -169438.75      944.02664     -168494.72      197.54078      197.13979      695.32573    
     25000  -169396.28      942.57366     -168453.71      197.52516      197.12641      695.6349     
     25100  -169355.13      939.60473     -168415.53      197.50971      197.11481      695.94407    
     25200  -169322.86      939.58138     -168383.28      197.4959       197.10522      696.25324    
     25300  -169297.69      941.82869     -168355.86      197.48209      197.09489      696.56242    
     25400  -169257.32      931.86449     -168325.45      197.46956      197.08568      696.87159    
     25500  -169222.01      942.60773     -168279.4       197.45835      197.07619      697.18076    
     25600  -169176.51      936.6911      -168239.82      197.44446      197.06398      697.48993    
     25700  -169149.02      946.42781     -168202.59      197.42801      197.05137      697.7991     
     25800  -169109.9       943.22517     -168166.68      197.41219      197.04072      698.10827    
     25900  -169063.51      939.00689     -168124.5       197.39484      197.02862      698.41744    
     26000  -169028.88      948.4918      -168080.39      197.3808       197.01535      698.72661    
     26100  -168992.75      948.00257     -168044.74      197.37036      197.00133      699.03578    
     26200  -168968.08      945.16155     -168022.92      197.36017      196.98677      699.34495    
     26300  -168937.37      944.63368     -167992.73      197.34905      196.97419      699.65413    
     26400  -168903.24      943.22106     -167960.02      197.33561      196.96308      699.9633     
     26500  -168862.59      939.15169     -167923.44      197.32171      196.95226      700.27247    
     26600  -168827.51      945.55681     -167881.95      197.31026      196.94013      700.58164    
     26700  -168784.53      948.67249     -167835.86      197.2995       196.92664      700.89081    
     26800  -168748.4       949.95663     -167798.45      197.28771      196.91202      701.19998    
     26900  -168713.84      942.98723     -167770.85      197.27425      196.89797      701.50915    
     27000  -168692.63      952.27527     -167740.36      197.25839      196.88427      701.81832    
     27100  -168656.64      946.72309     -167709.91      197.24178      196.87248      702.12749    
     27200  -168623.54      943.26774     -167680.27      197.22629      196.86256      702.43667    
     27300  -168585.77      938.22739     -167647.54      197.20934      196.8499       702.74584    
     27400  -168556.99      941.49704     -167615.49      197.19501      196.83762      703.05501    
     27500  -168512.35      934.02563     -167578.33      197.18323      196.82522      703.36418    
     27600  -168474.74      944.87432     -167529.87      197.16977      196.8119       703.67335    
     27700  -168438.68      950.23828     -167488.44      197.15504      196.79983      703.98252    
     27800  -168395.36      940.70209     -167454.66      197.142        196.79001      704.29169    
     27900  -168363.63      941.87699     -167421.75      197.13023      196.78057      704.60086    
     28000  -168323.93      941.81739     -167382.11      197.11983      196.77055      704.91003    
     28100  -168282.93      947.19449     -167335.74      197.11106      196.76068      705.2192     
     28200  -168243.91      946.43174     -167297.48      197.09934      196.74813      705.52838    
     28300  -168211.74      944.45787     -167267.28      197.08707      196.73655      705.83755    
     28400  -168180.31      939.05159     -167241.26      197.07344      196.72535      706.14672    
     28500  -168134.58      931.6852      -167202.9       197.05715      196.7117       706.45589    
     28600  -168094.94      935.97072     -167158.97      197.04322      196.70068      706.76506    
     28700  -168066.89      948.02214     -167118.87      197.02929      196.69114      707.07423    
     28800  -168026.86      947.89583     -167078.97      197.01407      196.68002      707.3834     
     28900  -167988.23      946.63869     -167041.59      197.00155      196.66932      707.69257    
     29000  -167952.54      944.78251     -167007.76      196.98958      196.65771      708.00174    
     29100  -167913.22      941.59051     -166971.63      196.97823      196.64604      708.31092    
     29200  -167876.54      942.83337     -166933.71      196.9667       196.63596      708.62009    
     29300  -167842.9       952.14674     -166890.75      196.95306      196.62536      708.92926    
     29400  -167787.29      943.167       -166844.12      196.93776      196.61283      709.23843    
     29500  -167750.5       949.7805      -166800.71      196.9231       196.60207      709.5476     
     29600  -167713.2       937.81523     -166775.39      196.91072      196.59187      709.85677    
     29700  -167687.64      941.66034     -166745.98      196.8988       196.57922      710.16594    
     29800  -167643.3       939.27202     -166704.03      196.88873      196.56801      710.47511    
     29900  -167609.17      949.67172     -166659.49      196.87865      196.55553      710.78428    
     30000  -167562.23      947.65442     -166614.57      196.86741      196.54292      711.09346    
     30100  -167525.11      950.25183     -166574.86      196.85459      196.53205      711.40263    
     30200  -167492.64      942.14848     -166550.5       196.8416       196.52149      711.7118     
     30300  -167454.29      938.07902     -166516.21      196.82784      196.51142      712.02097    
     30400  -167407.57      936.44563     -166471.13      196.81394      196.50115      712.33014    
     30500  -167362.59      938.78324     -166423.81      196.80054      196.48906      712.63931    
     30600  -167328.56      944.88484     -166383.68      196.78734      196.47664      712.94848    
     30700  -167285.88      937.25373     -166348.63      196.77724      196.46487      713.25765    
     30800  -167254.95      935.81972     -166319.13      196.76624      196.45164      713.56682    
     30900  -167212.82      930.12904     -166282.69      196.75551      196.43995      713.87599    
     31000  -167168.24      941.8679      -166226.37      196.74513      196.42942      714.18517    
     31100  -167128.26      944.86131     -166183.4       196.73135      196.41683      714.49434    
     31200  -167087.12      942.42844     -166144.69      196.71724      196.40652      714.80351    
     31300  -167041.93      934.33636     -166107.59      196.70206      196.39436      715.11268    
     31400  -167007.1       940.61868     -166066.48      196.68605      196.37976      715.42185    
     31500  -166972.71      947.97111     -166024.74      196.67378      196.36651      715.73102    
     31600  -166925.37      940.35665     -165985.02      196.66242      196.35208      716.04019    
     31700  -166894.5       943.09966     -165951.4       196.65183      196.33996      716.34936    
     31800  -166856.86      940.55032     -165916.31      196.63943      196.32868      716.65853    
     31900  -166811.08      943.07705     -165868         196.62501      196.31889      716.96771    
     32000  -166761.75      943.67914     -165818.07      196.61057      196.31171      717.27688    
     32100  -166718.57      939.10593     -165779.46      196.59696      196.30463      717.58605    
     32200  -166682.33      935.07747     -165747.25      196.58452      196.29623      717.89522    
     32300  -166648.43      939.12634     -165709.3       196.57213      196.28661      718.20439    
     32400  -166606.11      949.27929     -165656.83      196.5596       196.27523      718.51356    
     32500  -166556.69      946.40298     -165610.28      196.54619      196.26101      718.82273    
     32600  -166513.63      937.31872     -165576.31      196.5333       196.24692      719.1319     
     32700  -166485.89      941.93        -165543.96      196.51945      196.2329       719.44107    
     32800  -166445.1       940.06297     -165505.04      196.50475      196.22066      719.75025    
     32900  -166392.74      938.76317     -165453.98      196.49048      196.20982      720.05942    
     33000  -166350.74      943.6453      -165407.09      196.47687      196.19841      720.36859    
     33100  -166315.57      946.67413     -165368.89      196.46468      196.18654      720.67776    
     33200  -166281.45      944.60391     -165336.84      196.45309      196.17286      720.98693    
     33300  -166240.56      938.418       -165302.14      196.44142      196.15727      721.2961     
     33400  -166197.82      938.4988      -165259.32      196.4316       196.14284      721.60527    
     33500  -166155.58      941.20132     -165214.37      196.42167      196.12946      721.91444    
     33600  -166115.96      943.49878     -165172.46      196.40776      196.1144       722.22361    
     33700  -166068.92      935.86821     -165133.06      196.39404      196.10392      722.53278    
     33800  -166034.96      943.02784     -165091.93      196.37934      196.09551      722.84196    
     33900  -165993.45      944.1135      -165049.34      196.36392      196.08679      723.15113    
     34000  -165945.74      949.98728     -164995.75      196.35088      196.07756      723.4603     
     34100  -165902.85      951.79055     -164951.06      196.33917      196.06647      723.76947    
     34200  -165864.36      945.87317     -164918.49      196.32769      196.05232      724.07864    
     34300  -165825.4       940.7834      -164884.62      196.31745      196.03626      724.38781    
     34400  -165784.41      938.47498     -164845.93      196.30699      196.02104      724.69698    
     34500  -165744.36      942.47181     -164801.89      196.29392      196.00642      725.00615    
     34600  -165696.46      944.82249     -164751.64      196.28148      195.99512      725.31532    
     34700  -165650.39      949.33177     -164701.06      196.26638      195.98476      725.6245     
     34800  -165608.14      945.86885     -164662.27      196.24981      195.97525      725.93367    
     34900  -165580.48      944.33269     -164636.15      196.23538      195.96651      726.24284    
     35000  -165536.5       937.29179     -164599.2       196.22127      195.95387      726.55201    
     35100  -165490.84      936.27788     -164554.56      196.20802      195.93989      726.86118    
     35200  -165446.22      942.12361     -164504.1       196.19529      195.92564      727.17035    
     35300  -165406.35      948.43297     -164457.92      196.18241      195.91098      727.47952    
     35400  -165360.85      940.57816     -164420.27      196.16875      195.89848      727.78869    
     35500  -165326.16      933.2441      -164392.91      196.15381      195.88699      728.09786    
     35600  -165293.56      942.2417      -164351.31      196.13846      195.87553      728.40704    
     35700  -165241.07      939.09043     -164301.98      196.12353      195.86552      728.71621    
     35800  -165193.14      940.21333     -164252.93      196.10746      195.85407      729.02538    
     35900  -165150.61      942.17399     -164208.44      196.09323      195.84198      729.33455    
     36000  -165107.21      944.16427     -164163.05      196.08018      195.82936      729.64372    
     36100  -165057.73      948.27441     -164109.45      196.0659       195.81536      729.95289    
     36200  -165015.89      949.99729     -164065.89      196.05403      195.8032       730.26206    
     36300  -164964.96      933.14425     -164031.81      196.0429       195.79183      730.57123    
     36400  -164936.73      943.5718      -163993.16      196.02994      195.77971      730.8804     
     36500  -164896.34      942.9813      -163953.36      196.01679      195.76897      731.18957    
     36600  -164840.76      929.251       -163911.51      196.00175      195.75724      731.49875    
     36700  -164803.21      941.23211     -163861.97      195.98633      195.74395      731.80792    
     36800  -164760.18      949.65605     -163810.52      195.97302      195.73091      732.11709    
     36900  -164718.77      947.44509     -163771.33      195.95902      195.7152       732.42626    
     37000  -164674.19      935.5411      -163738.64      195.94499      195.69978      732.73543    
     37100  -164633.73      934.8156      -163698.91      195.93273      195.68733      733.0446     
     37200  -164591.39      937.52815     -163653.86      195.91894      195.67389      733.35377    
     37300  -164546.25      941.06425     -163605.18      195.90486      195.66108      733.66294    
     37400  -164504.68      948.2562      -163556.42      195.89192      195.65001      733.97211    
     37500  -164462.03      946.94732     -163515.09      195.8783       195.63777      734.28129    
     37600  -164428.23      941.4093      -163486.82      195.86602      195.62623      734.59046    
     37700  -164379.44      935.68053     -163443.76      195.85475      195.61425      734.89963    
     37800  -164332.67      940.69362     -163391.97      195.84206      195.6009       735.2088     
     37900  -164289.75      946.46323     -163343.28      195.83006      195.58735      735.51797    
     38000  -164242.16      941.1245      -163301.03      195.81821      195.57189      735.82714    
     38100  -164201.32      938.47321     -163262.85      195.80535      195.557        736.13631    
     38200  -164160.41      930.12938     -163230.28      195.79325      195.54347      736.44548    
     38300  -164114.68      931.88745     -163182.79      195.77979      195.52864      736.75465    
     38400  -164071.36      942.96076     -163128.39      195.76665      195.51625      737.06382    
     38500  -164029.47      947.64434     -163081.83      195.75248      195.50526      737.373      
     38600  -163975.17      939.13289     -163036.03      195.73738      195.49328      737.68217    
     38700  -163925.92      939.65748     -162986.26      195.72432      195.48274      737.99134    
     38800  -163883.71      948.09636     -162935.62      195.70816      195.46999      738.30051    
     38900  -163838.31      943.74412     -162894.57      195.69176      195.45659      738.60968    
     39000  -163798.8       934.05649     -162864.74      195.67845      195.44517      738.91885    
     39100  -163763.47      941.99733     -162821.48      195.6627       195.42908      739.22802    
     39200  -163712.09      942.80103     -162769.29      195.64937      195.41396      739.53719    
     39300  -163663.97      943.26333     -162720.71      195.63957      195.40141      739.84636    
     39400  -163625.43      950.42852     -162675         195.62567      195.38549      740.15554    
     39500  -163581.94      948.63298     -162633.31      195.61347      195.37459      740.46471    
     39600  -163535.66      943.48546     -162592.18      195.60067      195.36408      740.77388    
     39700  -163489.19      940.75759     -162548.43      195.58401      195.34997      741.08305    
     39800  -163441.52      937.79933     -162503.72      195.57098      195.33928      741.39222    
     39900  -163403.33      948.24825     -162455.08      195.55758      195.32571      741.70139    
     40000  -163352.36      950.86533     -162401.5       195.54169      195.30869      742.01056    
     40100  -163311.12      951.59552     -162359.52      195.52921      195.29682      742.31973    
     40200  -163268.98      940.62988     -162328.35      195.51478      195.28244      742.6289     
     40300  -163229.79      942.01705     -162287.77      195.49804      195.26536      742.93808    
     40400  -163183.39      940.01887     -162243.37      195.48554      195.25393      743.24725    
     40500  -163139.18      944.60031     -162194.58      195.47064      195.23995      743.55642    
     40600  -163083.78      943.03059     -162140.75      195.45531      195.22606      743.86559    
     40700  -163052.53      957.12093     -162095.4       195.44345      195.21602      744.17476    
     40800  -163008.15      943.59379     -162064.56      195.42994      195.20243      744.48393    
     40900  -162960.99      936.89966     -162024.09      195.41842      195.18955      744.7931     
     41000  -162920.24      941.87035     -161978.37      195.40763      195.17661      745.10227    
     41100  -162873.37      942.38378     -161930.99      195.39306      195.1602       745.41144    
     41200  -162825.82      945.66172     -161880.16      195.38007      195.14809      745.72061    
     41300  -162781.38      949.99717     -161831.38      195.36598      195.13457      746.02979    
     41400  -162738.6       942.55739     -161796.05      195.3499       195.11875      746.33896    
     41500  -162702.47      941.70953     -161760.76      195.33576      195.10653      746.64813    
     41600  -162653.82      939.35574     -161714.46      195.32094      195.09193      746.9573     
     41700  -162606.1       943.48093     -161662.62      195.30611      195.07653      747.26647    
     41800  -162557.65      945.13117     -161612.52      195.29379      195.06422      747.57564    
     41900  -162516.7       947.69217     -161569         195.2815       195.05072      747.88481    
     42000  -162472.04      935.34323     -161536.7       195.26975      195.03801      748.19398    
     42100  -162432.9       940.18365     -161492.72      195.2579       195.02506      748.50315    
     42200  -162384.16      944.43521     -161439.73      195.24515      195.01141      748.81233    
     42300  -162326.45      938.70342     -161387.75      195.23172      194.99892      749.1215     
     42400  -162282.01      939.83527     -161342.17      195.21712      194.98636      749.43067    
     42500  -162253.99      949.05016     -161304.94      195.20179      194.97345      749.73984    
     42600  -162203.14      929.85598     -161273.29      195.18685      194.96043      750.04901    
     42700  -162161.94      937.97049     -161223.97      195.17241      194.94596      750.35818    
     42800  -162113.65      944.97138     -161168.68      195.15901      194.93102      750.66735    
     42900  -162065.16      947.0082      -161118.15      195.1474       194.91805      750.97652    
     43000  -162020.17      949.35749     -161070.81      195.13536      194.90411      751.28569    
     43100  -161971.57      945.03684     -161026.53      195.12317      194.89008      751.59487    
     43200  -161926.43      935.57701     -160990.85      195.11118      194.87736      751.90404    
     43300  -161887.81      936.83568     -160950.98      195.09758      194.86253      752.21321    
     43400  -161840.53      940.84686     -160899.69      195.08332      194.84702      752.52238    
     43500  -161790.92      947.16189     -160843.76      195.06933      194.83279      752.83155    
     43600  -161749.71      950.09573     -160799.61      195.05373      194.81659      753.14072    
     43700  -161694.71      934.01481     -160760.7       195.03958      194.80139      753.44989    
     43800  -161662.13      941.84545     -160720.29      195.02748      194.78644      753.75906    
     43900  -161621.53      945.58908     -160675.94      195.01549      194.76963      754.06823    
     44000  -161564.93      943.41457     -160621.52      195.00512      194.75483      754.3774     
     44100  -161523.42      956.79907     -160566.62      194.99533      194.74204      754.68658    
     44200  -161464.14      937.6799      -160526.46      194.98314      194.72922      754.99575    
     44300  -161428.77      939.1131      -160489.66      194.97106      194.71741      755.30492    
     44400  -161379.74      933.42815     -160446.31      194.95804      194.70338      755.61409    
     44500  -161333.8       936.16287     -160397.64      194.94416      194.68709      755.92326    
     44600  -161293.07      946.33164     -160346.74      194.93152      194.67146      756.23243    
     44700  -161233.65      944.24972     -160289.4       194.91889      194.65488      756.5416     
     44800  -161189.8       951.86707     -160237.93      194.90618      194.6373       756.85077    
     44900  -161152.13      949.36556     -160202.76      194.89484      194.62155      757.15994    
     45000  -161111.41      946.28695     -160165.13      194.88284      194.60533      757.46912    
     45100  -161067.43      944.40725     -160123.02      194.87043      194.58987      757.77829    
     45200  -161019.45      941.07019     -160078.38      194.85905      194.57862      758.08746    
     45300  -160974.94      944.61549     -160030.32      194.84623      194.56721      758.39663    
     45400  -160922.12      948.58001     -159973.54      194.83257      194.55427      758.7058     
     45500  -160875.19      951.34132     -159923.85      194.8204       194.54253      759.01497    
     45600  -160830.65      944.57496     -159886.07      194.80727      194.52826      759.32414    
     45700  -160787.03      940.87913     -159846.15      194.79338      194.51387      759.63331    
     45800  -160739.49      939.78509     -159799.7       194.78123      194.50105      759.94248    
     45900  -160694.85      945.50655     -159749.35      194.7666       194.48351      760.25165    
     46000  -160639.97      944.21797     -159695.75      194.75356      194.46786      760.56083    
     46100  -160595.67      950.47766     -159645.2       194.7423       194.45367      760.87       
     46200  -160551.87      943.49956     -159608.37      194.72892      194.43739      761.17917    
     46300  -160509.3       938.09729     -159571.2       194.71732      194.42619      761.48834    
     46400  -160465.23      942.00292     -159523.22      194.70489      194.41406      761.79751    
     46500  -160417.17      947.59096     -159469.57      194.68999      194.39925      762.10668    
     46600  -160365.13      947.65083     -159417.48      194.67688      194.38912      762.41585    
     46700  -160318.61      948.13102     -159370.48      194.66232      194.37693      762.72502    
     46800  -160281.89      944.71744     -159337.17      194.64595      194.36278      763.03419    
     46900  -160237.25      940.79366     -159296.46      194.63262      194.35173      763.34337    
     47000  -160189.25      940.33539     -159248.91      194.61914      194.33616      763.65254    
     47100  -160145.51      950.86584     -159194.65      194.60648      194.31984      763.96171    
     47200  -160083         941.95551     -159141.04      194.59581      194.30706      764.27088    
     47300  -160049.35      947.67314     -159101.68      194.58305      194.29299      764.58005    
     47400  -160008         940.39601     -159067.6       194.5699       194.28063      764.88922    
     47500  -159961.64      940.33096     -159021.31      194.55658      194.27022      765.19839    
     47600  -159914.6       945.4804      -158969.12      194.54161      194.25799      765.50756    
     47700  -159858.62      944.088       -158914.53      194.5269       194.24621      765.81673    
     47800  -159815.89      946.46928     -158869.42      194.51246      194.23452      766.12591    
     47900  -159781.37      943.82971     -158837.54      194.49814      194.22116      766.43508    
     48000  -159735.73      944.03172     -158791.7       194.48552      194.20771      766.74425    
     48100  -159689.69      948.96611     -158740.72      194.47254      194.19129      767.05342    
     48200  -159632.31      944.04073     -158688.27      194.4598       194.17431      767.36259    
     48300  -159583.73      945.03769     -158638.69      194.44761      194.16043      767.67176    
     48400  -159547.49      946.10452     -158601.38      194.43369      194.14774      767.98093    
     48500  -159498.84      937.16997     -158561.67      194.42007      194.13752      768.2901     
     48600  -159451.52      938.76514     -158512.76      194.40681      194.12774      768.59927    
     48700  -159400.67      943.19661     -158457.48      194.39259      194.11556      768.90844    
     48800  -159353.56      950.13289     -158403.43      194.37932      194.10341      769.21762    
     48900  -159314.47      948.54822     -158365.93      194.36557      194.08941      769.52679    
     49000  -159272.38      943.08095     -158329.3       194.3511       194.07369      769.83596    
     49100  -159224.02      941.62972     -158282.39      194.33818      194.05795      770.14513    
     49200  -159169.09      939.74137     -158229.35      194.32548      194.0399       770.4543     
     49300  -159123.97      948.57965     -158175.39      194.31294      194.02267      770.76347    
     49400  -159071.69      944.57181     -158127.12      194.30035      194.00798      771.07264    
     49500  -159030.74      938.55618     -158092.18      194.28591      193.99416      771.38181    
     49600  -158989.71      939.97741     -158049.73      194.27255      193.98405      771.69098    
     49700  -158941.71      944.28176     -157997.43      194.25936      193.97408      772.00016    
     49800  -158889.14      946.61342     -157942.52      194.2463       193.96178      772.30933    
     49900  -158841.92      946.19377     -157895.73      194.23497      193.95066      772.6185     
     50000  -158799.82      934.68689     -157865.13      194.22192      193.93721      772.92767    
     50100  -158759.33      941.32497     -157818.01      194.20873      193.9228       773.23684    
     50200  -158701.37      937.82328     -157763.55      194.19675      193.90954      773.54601    
     50300  -158658.12      947.75803     -157710.37      194.18245      193.89218      773.85518    
     50400  -158611.04      945.02488     -157666.01      194.16957      193.87553      774.16435    
     50500  -158567.72      936.78077     -157630.94      194.15728      193.86087      774.47352    
     50600  -158518.65      935.43681     -157583.21      194.14302      193.84509      774.7827     
     50700  -158475.3       944.8012      -157530.5       194.13053      193.83328      775.09187    
     50800  -158423.02      946.04902     -157476.97      194.119        193.82182      775.40104    
     50900  -158376.15      947.07289     -157429.08      194.10706      193.80687      775.71021    
     51000  -158338.83      945.64701     -157393.18      194.09729      193.79256      776.01938    
     51100  -158287.16      937.31299     -157349.85      194.08746      193.7777       776.32855    
     51200  -158238.71      939.70551     -157299         194.07566      193.76145      776.63772    
     51300  -158189.77      948.51983     -157241.25      194.06455      193.74701      776.94689    
     51400  -158135.98      947.76054     -157188.22      194.05212      193.73101      777.25606    
     51500  -158094.48      941.09992     -157153.38      194.03871      193.71519      777.56523    
     51600  -158053.81      942.17634     -157111.63      194.02681      193.70121      777.87441    
     51700  -158004.9       942.39306     -157062.5       194.01304      193.68602      778.18358    
     51800  -157953.96      941.73275     -157012.23      194.00049      193.67271      778.49275    
     51900  -157912.04      950.28879     -156961.75      193.98901      193.65892      778.80192    
     52000  -157858.13      938.41216     -156919.72      193.97636      193.6434       779.11109    
     52100  -157822.14      942.12593     -156880.01      193.96593      193.62873      779.42026    
     52200  -157776.88      945.77167     -156831.1       193.95594      193.6125       779.72943    
     52300  -157718.29      943.96288     -156774.33      193.94551      193.59746      780.0386     
     52400  -157663.5       949.25813     -156714.25      193.93532      193.58415      780.34777    
     52500  -157617.56      948.29395     -156669.27      193.92336      193.56887      780.65695    
     52600  -157577.57      949.75414     -156627.82      193.91122      193.5565       780.96612    
     52700  -157529.59      942.49428     -156587.09      193.89845      193.54362      781.27529    
     52800  -157491.18      948.66052     -156542.52      193.8847       193.52954      781.58446    
     52900  -157436.12      939.82019     -156496.3       193.87183      193.51786      781.89363    
     53000  -157395.26      940.59241     -156454.67      193.85831      193.50414      782.2028     
     53100  -157345.82      933.1768      -156412.64      193.84505      193.4891       782.51197    
     53200  -157299.69      943.17107     -156356.52      193.83314      193.47535      782.82114    
     53300  -157244.51      947.45344     -156297.06      193.81973      193.46011      783.13031    
     53400  -157193.15      942.69357     -156250.45      193.80667      193.44662      783.43949    
     53500  -157151.28      941.8728      -156209.41      193.79451      193.43455      783.74866    
     53600  -157107.97      942.85586     -156165.12      193.78115      193.42168      784.05783    
     53700  -157060.6       943.80395     -156116.8       193.76854      193.41047      784.367      
     53800  -157005.65      936.67476     -156068.97      193.75536      193.39711      784.67617    
     53900  -156966.93      940.78801     -156026.14      193.74217      193.38299      784.98534    
     54000  -156927.32      941.69686     -155985.62      193.72907      193.36917      785.29451    
     54100  -156872.24      939.27565     -155932.96      193.71457      193.35286      785.60368    
     54200  -156821.67      946.9335      -155874.73      193.70094      193.33822      785.91285    
     54300  -156769.78      947.70673     -155822.07      193.68707      193.324        786.22202    
     54400  -156727.08      940.07856     -155787         193.67306      193.30884      786.5312     
     54500  -156685.21      942.78006     -155742.43      193.66029      193.29562      786.84037    
     54600  -156634.84      941.31134     -155693.53      193.64764      193.2825       787.14954    
     54700  -156585.58      941.40331     -155644.18      193.63569      193.26935      787.45871    
     54800  -156544.96      946.56643     -155598.39      193.62393      193.25646      787.76788    
     54900  -156494.92      938.80099     -155556.12      193.61195      193.24235      788.07705    
     55000  -156451.81      943.50383     -155508.3       193.60026      193.22797      788.38622    
     55100  -156395.85      944.65446     -155451.2       193.58792      193.21392      788.69539    
     55200  -156343.71      952.74236     -155390.97      193.57422      193.19894      789.00456    
     55300  -156298.04      952.30501     -155345.74      193.56081      193.18479      789.31374    
     55400  -156253.09      947.18826     -155305.9       193.54654      193.17001      789.62291    
     55500  -156203.33      943.56539     -155259.77      193.53195      193.15499      789.93208    
     55600  -156162.89      947.94715     -155214.94      193.51777      193.14015      790.24125    
     55700  -156112.35      941.26958     -155171.08      193.50454      193.12605      790.55042    
     55800  -156067.39      942.95064     -155124.44      193.49078      193.11118      790.85959    
     55900  -156015.23      938.27159     -155076.96      193.47802      193.09679      791.16876    
     56000  -155968.39      934.74786     -155033.64      193.46672      193.08271      791.47793    
     56100  -155920.19      936.5968      -154983.59      193.4547       193.06718      791.7871     
     56200  -155866.6       942.95442     -154923.65      193.4428       193.05225      792.09627    
     56300  -155817.28      950.91073     -154866.37      193.43159      193.03861      792.40545    
     56400  -155769.34      946.18313     -154823.15      193.41867      193.02291      792.71462    
     56500  -155722.48      943.41884     -154779.06      193.40622      193.00866      793.02379    
     56600  -155683.68      951.05778     -154732.62      193.39353      192.99365      793.33296    
     56700  -155634         946.54168     -154687.46      193.37963      192.9767       793.64213    
     56800  -155584.29      943.03626     -154641.26      193.36831      192.96452      793.9513     
     56900  -155533.98      938.2446      -154595.73      193.35605      192.95125      794.26047    
     57000  -155486.3       930.90373     -154555.4       193.34282      192.93567      794.56964    
     57100  -155442.02      938.4869      -154503.53      193.33194      192.92251      794.87881    
     57200  -155387.03      949.29584     -154437.73      193.31935      192.90605      795.18799    
     57300  -155337.88      956.25912     -154381.62      193.30653      192.88972      795.49716    
     57400  -155288.44      949.69964     -154338.74      193.29596      192.87678      795.80633    
     57500  -155244.35      947.60223     -154296.75      193.28307      192.85882      796.1155     
     57600  -155197.03      945.27434     -154251.76      193.27141      192.84255      796.42467    
     57700  -155144.95      939.65355     -154205.29      193.26054      192.82612      796.73384    
     57800  -155091.24      933.71648     -154157.52      193.24845      192.80566      797.04301    
     57900  -155048.56      941.29049     -154107.27      193.23904      192.79001      797.35218    
     58000  -155006.38      942.91109     -154063.46      193.22813      192.77462      797.66135    
     58100  -154957.3       940.29038     -154017.01      193.21539      192.7587       797.97053    
     58200  -154905.17      944.50585     -153960.67      193.20458      192.74722      798.2797     
     58300  -154846.53      948.16881     -153898.36      193.19201      192.73315      798.58887    
     58400  -154788.74      949.89769     -153838.84      193.17839      192.71771      798.89804    
     58500  -154753.18      952.22871     -153800.95      193.16671      192.70471      799.20721    
     58600  -154705.11      947.7948      -153757.32      193.15252      192.68698      799.51638    
     58700  -154653.32      941.9769      -153711.34      193.14016      192.67108      799.82555    
     58800  -154602.57      937.75181     -153664.82      193.12829      192.65476      800.13472    
     58900  -154558.36      941.83652     -153616.52      193.11435      192.63565      800.44389    
     59000  -154505.93      940.13696     -153565.79      193.10357      192.62155      800.75306    
     59100  -154464.45      945.89143     -153518.56      193.0918       192.60553      801.06224    
     59200  -154400.9       927.85396     -153473.04      193.07906      192.59017      801.37141    
     59300  -154362.24      944.64291     -153417.6       193.06845      192.57898      801.68058    
     59400  -154306.67      952.29851     -153354.37      193.05541      192.56443      801.98975    
     59500  -154246.02      954.48655     -153291.53      193.04215      192.55138      802.29892    
     59600  -154198.6       949.36511     -153249.23      193.02978      192.53929      802.60809    
     59700  -154152.69      947.77038     -153204.92      193.01528      192.52307      802.91726    
     59800  -154107.37      946.70158     -153160.67      193.00111      192.5079       803.22643    
     59900  -154058.03      942.81976     -153115.21      192.98707      192.49171      803.5356     
     60000  -154009.53      941.25486     -153068.28      192.97184      192.4742       803.84478    
     60100  -153955.27      937.99545     -153017.27      192.95712      192.45875      804.15395    
     60200  -153911.5       944.04213     -152967.46      192.94166      192.44229      804.46312    
     60300  -153869.5       946.25828     -152923.24      192.92736      192.42872      804.77229    
     60400  -153814.03      939.88156     -152874.15      192.91346      192.41591      805.08146    
     60500  -153754.48      937.54156     -152816.94      192.9          192.40227      805.39063    
     60600  -153703.56      942.49551     -152761.06      192.88757      192.38952      805.6998     
     60700  -153659.11      947.90624     -152711.2       192.87456      192.37537      806.00897    
     60800  -153606.2       944.55989     -152661.64      192.8616       192.3605       806.31814    
     60900  -153552.17      943.20864     -152608.96      192.84903      192.34585      806.62732    
     61000  -153501.49      940.94674     -152560.54      192.83447      192.32832      806.93649    
     61100  -153447.29      935.92108     -152511.36      192.82001      192.31211      807.24566    
     61200  -153401.38      942.11863     -152459.26      192.80585      192.29662      807.55483    
     61300  -153345.44      940.35541     -152405.08      192.79099      192.28019      807.864      
     61400  -153298.59      947.61881     -152350.97      192.77712      192.26561      808.17317    
     61500  -153246.11      948.98503     -152297.12      192.76319      192.25002      808.48234    
     61600  -153188.5       941.19034     -152247.31      192.74975      192.23551      808.79151    
     61700  -153146.94      949.76831     -152197.17      192.73727      192.22271      809.10068    
     61800  -153087.6       942.32678     -152145.27      192.72321      192.20715      809.40985    
     61900  -153037.23      944.63891     -152092.59      192.71061      192.19369      809.71903    
     62000  -152986.08      945.1232      -152040.96      192.69755      192.17872      810.0282     
     62100  -152929.97      942.86094     -151987.11      192.68307      192.16173      810.33737    
     62200  -152881.77      948.25074     -151933.52      192.66988      192.14831      810.64654    
     62300  -152831.04      949.3526      -151881.69      192.65492      192.13195      810.95571    
     62400  -152776.09      947.63073     -151828.46      192.64012      192.11531      811.26488    
     62500  -152719.16      943.02257     -151776.14      192.62629      192.09913      811.57405    
     62600  -152670.58      945.3249      -151725.26      192.61171      192.08033      811.88322    
     62700  -152615.79      944.72536     -151671.07      192.59906      192.06374      812.19239    
     62800  -152562.8       944.66067     -151618.14      192.58657      192.04671      812.50157    
     62900  -152507.58      943.45824     -151564.12      192.5743       192.03059      812.81074    
     63000  -152454.9       944.8793      -151510.02      192.5624       192.01486      813.11991    
     63100  -152406.12      949.56403     -151456.55      192.55047      191.99814      813.42908    
     63200  -152348.6       946.29465     -151402.31      192.53882      191.98275      813.73825    
     63300  -152296.24      947.59936     -151348.64      192.52598      191.9662       814.04742    
     63400  -152245.26      951.18441     -151294.07      192.51299      191.95069      814.35659    
     63500  -152189.76      951.1587      -151238.6       192.49887      191.9351       814.66576    
     63600  -152127.92      943.79034     -151184.13      192.48441      191.91872      814.97493    
     63700  -152081.09      951.99759     -151129.09      192.46999      191.9011       815.2841     
     63800  -152012.36      939.0234      -151073.33      192.45611      191.88381      815.59328    
     63900  -151964.8       946.80282     -151018         192.44302      191.86628      815.90245    
     64000  -151916.34      953.41781     -150962.92      192.43011      191.84669      816.21162    
     64100  -151848.88      941.38846     -150907.49      192.4193       191.82902      816.52079    
     64200  -151804.89      951.24916     -150853.64      192.40851      191.81093      816.82996    
     64300  -151743.98      946.24912     -150797.73      192.39715      191.79285      817.13913    
     64400  -151684.72      943.56972     -150741.15      192.38739      191.77831      817.4483     
     64500  -151627.86      942.21536     -150685.65      192.37555      191.76179      817.75747    
     64600  -151574.87      947.32032     -150627.55      192.3635       191.74623      818.06664    
     64700  -151513.12      944.97956     -150568.14      192.35123      191.7323       818.37582    
     64800  -151455.26      943.7075      -150511.55      192.33574      191.71553      818.68499    
     64900  -151403.91      953.14078     -150450.77      192.32086      191.69947      818.99416    
     65000  -151344.69      951.97175     -150392.71      192.30576      191.68054      819.30333    
     65100  -151277.55      943.21947     -150334.33      192.29089      191.65986      819.6125     
     65200  -151222.5       946.76093     -150275.73      192.27799      191.64183      819.92167    
     65300  -151162.61      943.67588     -150218.93      192.26496      191.62401      820.23084    
     65400  -151109.87      950.19335     -150159.68      192.2537       191.60936      820.54001    
     65500  -151049.08      946.65731     -150102.42      192.24125      191.59418      820.84918    
     65600  -150994.19      950.14822     -150044.04      192.22807      191.57908      821.15836    
     65700  -150928.09      943.11777     -149984.97      192.21482      191.56418      821.46753    
     65800  -150873.5       948.45495     -149925.04      192.20049      191.54704      821.7767     
     65900  -150815.3       949.13504     -149866.16      192.18611      191.53036      822.08587    
     66000  -150751.38      944.00208     -149807.37      192.17126      191.51295      822.39504    
     66100  -150695.76      947.48392     -149748.28      192.15664      191.49427      822.70421    
     66200  -150636.59      947.47882     -149689.11      192.14361      191.4769       823.01338    
     66300  -150576.93      947.62966     -149629.3       192.12972      191.4586       823.32255    
     66400  -150511.3       943.27886     -149568.02      192.11651      191.44162      823.63172    
     66500  -150454.59      947.33221     -149507.26      192.10293      191.42495      823.94089    
     66600  -150391.49      947.08395     -149444.4       192.08883      191.40943      824.25007    
     66700  -150332.48      949.49928     -149382.98      192.07471      191.3948       824.55924    
     66800  -150267.08      945.22951     -149321.85      192.0599       191.37884      824.86841    
     66900  -150202.9       941.66033     -149261.24      192.04545      191.36295      825.17758    
     67000  -150144.81      944.40185     -149200.41      192.03168      191.34665      825.48675    
     67100  -150089.95      952.47574     -149137.47      192.01731      191.32782      825.79592    
     67200  -150017.88      943.52031     -149074.36      192.0039       191.31014      826.10509    
     67300  -149954.68      943.55057     -149011.13      191.99019      191.2922       826.41426    
     67400  -149886.46      941.12704     -148945.33      191.97588      191.27374      826.72343    
     67500  -149833.52      952.81979     -148880.7       191.96301      191.25786      827.03261    
     67600  -149767.04      950.50677     -148816.53      191.94863      191.23949      827.34178    
     67700  -149705.67      954.08226     -148751.59      191.93531      191.22326      827.65095    
     67800  -149635.08      946.42596     -148688.65      191.92173      191.20716      827.96012    
     67900  -149570.37      946.04556     -148624.32      191.90779      191.18992      828.26929    
     68000  -149505.11      946.16516     -148558.94      191.89604      191.17466      828.57846    
     68100  -149432.21      939.35201     -148492.86      191.88255      191.15704      828.88763    
     68200  -149375.06      947.36868     -148427.69      191.86951      191.14049      829.1968     
     68300  -149311.02      947.57223     -148363.44      191.85589      191.12286      829.50597    
     68400  -149243.92      948.56358     -148295.35      191.84104      191.10373      829.81515    
     68500  -149178.8       949.44849     -148229.36      191.82638      191.08552      830.12432    
     68600  -149107.55      946.58969     -148160.96      191.81121      191.06605      830.43349    
     68700  -149043.21      950.06226     -148093.15      191.7974       191.04722      830.74266    
     68800  -148975.08      949.99367     -148025.09      191.78388      191.0303       831.05183    
     68900  -148905.71      947.7585      -147957.95      191.77037      191.01453      831.361      
     69000  -148845.18      954.1292      -147891.05      191.75733      190.99827      831.67017    
     69100  -148773.72      951.97285     -147821.75      191.74438      190.98047      831.97934    
     69200  -148707.32      953.62069     -147753.7       191.73199      190.96297      832.28851    
     69300  -148632.46      947.46312     -147685         191.71865      190.94377      832.59768    
     69400  -148569.94      954.19608     -147615.74      191.70632      190.9254       832.90686    
     69500  -148499.83      953.79746     -147546.03      191.69325      190.90669      833.21603    
     69600  -148433.22      957.51494     -147475.71      191.6789       190.88897      833.5252     
     69700  -148364.9       957.71293     -147407.19      191.66538      190.87394      833.83437    
     69800  -148288.35      951.68476     -147336.67      191.65056      190.85611      834.14354    
     69900  -148219.84      955.38205     -147264.46      191.63645      190.83858      834.45271    
     70000  -148150.26      955.0472      -147195.21      191.62236      190.82062      834.76188    
     70100  -148078.62      956.63189     -147121.99      191.60821      190.80096      835.07105    
     70200  -148011.1       960.77631     -147050.32      191.59513      190.78244      835.38022    
     70300  -147934.38      954.87265     -146979.5       191.58122      190.7633       835.6894     
     70400  -147858.88      951.64047     -146907.23      191.56726      190.74505      835.99857    
     70500  -147787.74      953.78847     -146833.95      191.55364      190.72907      836.30774    
     70600  -147714.5       954.21299     -146760.29      191.53971      190.71306      836.61691    
     70700  -147642.46      954.04924     -146688.41      191.52634      190.69713      836.92608    
     70800  -147565.13      951.49503     -146613.64      191.51396      190.68121      837.23525    
     70900  -147490.64      951.8537      -146538.78      191.50022      190.66229      837.54442    
     71000  -147431.59      964.95464     -146466.64      191.48555      190.64337      837.85359    
     71100  -147350.32      958.26973     -146392.05      191.4709       190.62582      838.16276    
     71200  -147277.26      959.71346     -146317.55      191.45495      190.60673      838.47194    
     71300  -147202.86      959.412       -146243.45      191.44044      190.59075      838.78111    
     71400  -147121.37      956.18965     -146165.18      191.42608      190.57459      839.09028    
     71500  -147051.26      965.2903      -146085.97      191.41093      190.55704      839.39945    
     71600  -146973.68      962.41024     -146011.27      191.39766      190.54268      839.70862    
     71700  -146904.32      967.96635     -145936.35      191.38212      190.52414      840.01779    
     71800  -146826.69      965.52847     -145861.16      191.36835      190.50685      840.32696    
     71900  -146746.51      961.59587     -145784.92      191.35491      190.48946      840.63613    
     72000  -146672.85      967.00427     -145705.84      191.33963      190.47011      840.9453     
     72100  -146599.57      975.15815     -145624.41      191.3258       190.4546       841.25447    
     72200  -146519.93      973.68946     -145546.24      191.30919      190.43518      841.56365    
     72300  -146435.07      970.83247     -145464.24      191.29324      190.41797      841.87282    
     72400  -146359.18      973.98869     -145385.19      191.27823      190.4022       842.18199    
     72500  -146283.92      975.1333      -145308.79      191.2624       190.38345      842.49116    
     72600  -146210.76      982.60659     -145228.16      191.2496       190.36773      842.80033    
     72700  -146125.71      975.97049     -145149.74      191.23509      190.34934      843.1095     
[...]
     81600  -173390.01      1003.1817     -172386.83      190.84049      191.18927      870.62573    
     81700  -173570.18      992.70831     -172577.47      190.84616      191.21088      870.9349     
     81800  -173738.57      983.13758     -172755.43      190.85191      191.23266      871.24407    
     81900  -173892.49      972.38167     -172920.11      190.85778      191.25535      871.55324    
     82000  -174033.57      963.76175     -173069.81      190.86333      191.27852      871.86241    
     82100  -174163.01      957.69671     -173205.31      190.86904      191.30294      872.17158    
     82200  -174278.09      950.28007     -173327.81      190.87523      191.32847      872.48075    
     82300  -174378.63      943.56637     -173435.06      190.88129      191.35383      872.78992    
     82400  -174464.97      939.36831     -173525.6       190.88766      191.3789       873.09909    
     82500  -174535.07      935.65126     -173599.42      190.89446      191.40398      873.40827    
     82600  -174587.55      932.24349     -173655.3       190.90175      191.4296       873.71744    
     82700  -174620.43      930.19205     -173690.24      190.90937      191.45542      874.02661    
     82800  -174641.82      937.61935     -173704.2       190.91668      191.48046      874.33578    
     82900  -174649.83      940.41967     -173709.41      190.92458      191.50626      874.64495    
     83000  -174642.44      932.5569      -173709.88      190.93289      191.53189      874.95412    
     83100  -174619.74      927.19569     -173692.54      190.94072      191.55567      875.26329    
     83200  -174579.81      931.04235     -173648.77      190.94809      191.57728      875.57246    
     83300  -174520.32      933.27581     -173587.04      190.95461      191.59571      875.88163    
     83400  -174439         925.17302     -173513.83      190.96136      191.6122       876.19081    
     83500  -174346.59      923.75626     -173422.83      190.96792      191.62686      876.49998    
     83600  -174248.12      929.4181      -173318.7       190.97306      191.63695      876.80915    
     83700  -174154.83      939.4065      -173215.42      190.97827      191.64482      877.11832    
     83800  -174064.71      941.8446      -173122.86      190.9879       191.65003      877.42749    
     83900  -173999.78      954.52471     -173045.26      190.99855      191.64178      877.73666    
     84000  -173967.64      968.20735     -172999.44      191.01334      191.6295       878.04583    
     84100  -173933.33      938.6258      -172994.7       191.02922      191.6095       878.355      
     84200  -173897.06      914.96584     -172982.09      191.04866      191.59402      878.66417    
     84300  -173856.39      932.60382     -172923.79      191.07174      191.59401      878.97334    
     84400  -173825.97      968.05        -172857.92      191.09403      191.60343      879.28252    
     84500  -173788.12      952.13941     -172835.98      191.10936      191.61218      879.59169    
     84600  -173749.25      920.14241     -172829.11      191.11579      191.61798      879.90086    
     84700  -173725.49      937.43256     -172788.05      191.11741      191.62615      880.21003    
     84800  -173698.33      960.47189     -172737.86      191.12188      191.64681      880.5192     
     84900  -173682.97      962.09687     -172720.87      191.1327       191.67603      880.82837    
     85000  -173674.19      937.31453     -172736.88      191.14457      191.70709      881.13754    
     85100  -173661.12      920.78398     -172740.34      191.15183      191.73496      881.44671    
     85200  -173629.55      926.1111      -172703.44      191.15295      191.75989      881.75588    
     85300  -173609.52      967.25803     -172642.26      191.15285      191.78573      882.06506    
     85400  -173589.82      968.14059     -172621.68      191.15639      191.8115       882.37423    
     85500  -173573.6       930.42289     -172643.18      191.16115      191.83922      882.6834     
     85600  -173573.45      927.37299     -172646.07      191.16644      191.86321      882.99257    
     85700  -173554.01      934.25752     -172619.76      191.17165      191.88922      883.30174    
     85800  -173544.58      959.81933     -172584.76      191.17782      191.91751      883.61091    
     85900  -173531.84      950.41586     -172581.42      191.18343      191.95307      883.92008    
     86000  -173527.78      930.41873     -172597.36      191.18737      191.99529      884.22925    
     86100  -173526.49      929.07747     -172597.41      191.19093      192.03535      884.53842    
     86200  -173522.32      950.06032     -172572.26      191.19704      192.08007      884.8476     
     86300  -173503.82      946.10222     -172557.72      191.20429      192.12351      885.15677    
     86400  -173491.26      936.91884     -172554.34      191.20741      192.16185      885.46594    
     86500  -173480.02      934.42853     -172545.59      191.20981      192.19763      885.77511    
     86600  -173478.24      946.73914     -172531.5       191.21153      192.23116      886.08428    
     86700  -173466.72      945.47985     -172521.24      191.22031      192.27998      886.39345    
     86800  -173447.78      939.50802     -172508.28      191.22907      192.32619      886.70262    
     86900  -173444.34      951.96989     -172492.37      191.23364      192.36437      887.01179    
     87000  -173430.76      941.05779     -172489.7       191.24378      192.40783      887.32096    
     87100  -173426.65      941.42924     -172485.22      191.25015      192.44708      887.63013    
     87200  -173422.85      942.21158     -172480.64      191.25593      192.48369      887.93931    
     87300  -173420.38      939.22959     -172481.15      191.26554      192.52475      888.24848    
     87400  -173423.87      943.11817     -172480.76      191.26984      192.55991      888.55765    
     87500  -173433.53      949.20414     -172484.32      191.26586      192.59667      888.86682    
     87600  -173430.17      931.75566     -172498.42      191.26455      192.64011      889.17599    
     87700  -173427.31      932.21281     -172495.09      191.26769      192.68746      889.48516    
     87800  -173418.74      948.34176     -172470.4       191.27785      192.73932      889.79433    
     87900  -173422.18      959.34861     -172462.83      191.2895       192.79986      890.1035     
     88000  -173429.22      941.30337     -172487.92      191.30243      192.86682      890.41267    
     88100  -173437.56      926.37065     -172511.19      191.31093      192.93034      890.72185    
     88200  -173436.62      936.51723     -172500.1       191.31904      192.99535      891.03102    
     88300  -173422.93      954.20889     -172468.72      191.32992      193.05838      891.34019    
     88400  -173418.03      966.15606     -172451.88      191.34358      193.123        891.64936    
     88500  -173417.7       944.87291     -172472.82      191.35977      193.18538      891.95853    
     88600  -173423.51      922.03733     -172501.47      191.37619      193.24523      892.2677     
     88700  -173422.65      926.04403     -172496.61      191.38696      193.30596      892.57687    
     88800  -173407.53      945.22205     -172462.31      191.39676      193.37033      892.88604    
     88900  -173405.82      967.67        -172438.15      191.40662      193.4382       893.19521    
     89000  -173402.87      942.1929      -172460.67      191.41501      193.51035      893.50439    
     89100  -173410.31      935.44761     -172474.87      191.42047      193.58165      893.81356    
     89200  -173422.82      930.45629     -172492.36      191.42895      193.66398      894.12273    
     89300  -173422.53      936.02615     -172486.5       191.43448      193.75049      894.4319     
     89400  -173423.94      952.39647     -172471.54      191.43697      193.82932      894.74107    
     89500  -173416.45      945.14209     -172471.31      191.44333      193.9041       895.05024    
     89600  -173418.61      938.80475     -172479.81      191.45271      193.97779      895.35941    
     89700  -173414.36      933.99789     -172480.36      191.46338      194.05242      895.66858    
     89800  -173405.37      938.97173     -172466.4       191.47614      194.12789      895.97775    
     89900  -173405.62      954.46588     -172451.16      191.48641      194.19625      896.28692    
     90000  -173396.61      944.09518     -172452.51      191.49625      194.2631       896.5961     
     90100  -173395.96      936.32721     -172459.63      191.5076       194.32646      896.90527    
     90200  -173394.78      935.50599     -172459.27      191.51777      194.37827      897.21444    
     90300  -173384.03      939.79833     -172444.23      191.52678      194.42447      897.52361    
     90400  -173375.01      952.09008     -172422.92      191.53322      194.46424      897.83278    
     90500  -173364.94      950.96071     -172413.98      191.54225      194.50148      898.14195    
     90600  -173357.75      935.82919     -172421.92      191.55201      194.54014      898.45112    
     90700  -173364.93      939.72532     -172425.2       191.55889      194.5766       898.76029    
     90800  -173360.6       944.60799     -172415.99      191.5671       194.60841      899.06946    
     90900  -173347.98      941.14239     -172406.84      191.57574      194.63277      899.37864    
     91000  -173348.81      946.50908     -172402.3       191.58385      194.64986      899.68781    
     91100  -173352.1       943.45532     -172408.65      191.59089      194.66138      899.99698    
     91200  -173357.09      937.97861     -172419.11      191.59107      194.66295      900.30615    
     91300  -173353.76      931.9979      -172421.76      191.59222      194.66574      900.61532    
     91400  -173347.95      940.08921     -172407.86      191.58897      194.66423      900.92449    
     91500  -173344.87      952.67954     -172392.19      191.58173      194.65967      901.23366    
     91600  -173348.06      948.18614     -172399.87      191.57812      194.65673      901.54283    
     91700  -173371.45      947.41851     -172424.04      191.56947      194.64543      901.852      
     91800  -173367.68      921.34381     -172446.34      191.56332      194.63118      902.16117    
     91900  -173374.39      936.34087     -172438.05      191.5589       194.61391      902.47035    
     92000  -173361.96      945.30882     -172416.65      191.55799      194.58902      902.77952    
     92100  -173360.26      958.72769     -172401.53      191.55945      194.55749      903.08869    
     92200  -173361.78      952.15731     -172409.63      191.56044      194.5242       903.39786    
     92300  -173376.43      939.99343     -172436.44      191.55901      194.48211      903.70703    
     92400  -173378.28      928.18639     -172450.09      191.55715      194.42904      904.0162     
     92500  -173372.96      933.58535     -172439.38      191.55875      194.37712      904.32537    
     92600  -173370.2       951.88172     -172418.32      191.559        194.32798      904.63454    
     92700  -173377.75      964.04188     -172413.71      191.56566      194.28277      904.94371    
     92800  -173375.79      943.46184     -172432.32      191.56949      194.23665      905.25289    
     92900  -173381.2       924.72319     -172456.47      191.56478      194.19249      905.56206    
     93000  -173381.76      927.64412     -172454.11      191.56384      194.15417      905.87123    
     93100  -173371.94      944.99411     -172426.95      191.56155      194.10882      906.1804     
     93200  -173358.68      961.76445     -172396.91      191.56218      194.06034      906.48957    
     93300  -173351.78      951.89109     -172399.89      191.57031      194.01606      906.79874    
     93400  -173372.09      937.46505     -172434.62      191.57445      193.97371      907.10791    
     93500  -173378.56      922.22683     -172456.34      191.58406      193.93361      907.41708    
     93600  -173364.48      926.68151     -172437.8       191.58966      193.8879       907.72625    
     93700  -173353.29      958.93083     -172394.36      191.59255      193.84133      908.03543    
     93800  -173345.74      969.42664     -172376.31      191.60164      193.79888      908.3446     
     93900  -173352.98      943.22823     -172409.75      191.60596      193.75896      908.65377    
     94000  -173367.75      920.51494     -172447.24      191.60803      193.72217      908.96294    
     94100  -173364.35      924.00478     -172440.34      191.61467      193.68401      909.27211    
     94200  -173341.44      945.0201      -172396.42      191.61885      193.64777      909.58128    
     94300  -173325.29      967.4235      -172357.87      191.62708      193.62147      909.89045    
     94400  -173334.62      968.91669     -172365.7       191.63732      193.60084      910.19962    
     94500  -173346         929.80356     -172416.2       191.65061      193.59084      910.50879    
     94600  -173355.98      911.77138     -172444.21      191.662        193.58815      910.81796    
     94700  -173351.65      930.97344     -172420.67      191.67201      193.58281      911.12714    
     94800  -173321.31      954.89224     -172366.42      191.68552      193.57479      911.43631    
     94900  -173309.68      970.2094      -172339.47      191.69423      193.56515      911.74548    
     95000  -173322.14      951.71662     -172370.42      191.70642      193.55312      912.05465    
     95100  -173346.37      925.77778     -172420.59      191.72562      193.54201      912.36382    
     95200  -173358.04      918.68688     -172439.35      191.74219      193.52497      912.67299    
     95300  -173349.16      935.21912     -172413.94      191.7567       193.50334      912.98216    
     95400  -173335.64      960.22381     -172375.42      191.77144      193.48503      913.29133    
     95500  -173328.7       961.13743     -172367.56      191.78129      193.4681       913.6005     
     95600  -173336.19      936.76022     -172399.43      191.79344      193.45555      913.90968    
     95700  -173347.35      922.14639     -172425.21      191.80519      193.44205      914.21885    
     95800  -173342.31      922.40391     -172419.91      191.81449      193.43175      914.52802    
     95900  -173333.2       942.70836     -172390.49      191.82324      193.43183      914.83719    
     96000  -173330.24      958.64189     -172371.6       191.82874      193.44015      915.14636    
     96100  -173341.36      955.27119     -172386.09      191.83471      193.45555      915.45553    
     96200  -173352.84      935.94686     -172416.89      191.83965      193.47133      915.7647     
     96300  -173364.97      933.7294      -172431.24      191.84708      193.48814      916.07387    
     96400  -173359.98      937.47885     -172422.5       191.85726      193.5046       916.38304    
     96500  -173357.97      949.63872     -172408.33      191.86883      193.52453      916.69222    
     96600  -173365.39      955.23358     -172410.15      191.87766      193.54858      917.00139    
     96700  -173369.06      938.71528     -172430.34      191.88898      193.57282      917.31056    
     96800  -173376.8       931.86484     -172444.93      191.89898      193.59579      917.61973    
     96900  -173378.67      937.51842     -172441.15      191.91093      193.61755      917.9289     
     97000  -173368.4       941.56825     -172426.83      191.92783      193.63817      918.23807    
     97100  -173366.6       950.69871     -172415.9       191.94481      193.65992      918.54724    
     97200  -173368.57      946.51896     -172422.05      191.95607      193.67921      918.85641    
     97300  -173384.84      943.29989     -172441.54      191.96653      193.70335      919.16558    
     97400  -173384.82      929.95842     -172454.86      191.97788      193.73128      919.47475    
     97500  -173380.66      931.75515     -172448.9       191.98903      193.76252      919.78393    
     97600  -173381.94      952.07331     -172429.87      192.00088      193.78966      920.0931     
     97700  -173381.19      957.71781     -172423.47      192.01285      193.81707      920.40227    
     97800  -173387.09      944.72681     -172442.36      192.02718      193.85526      920.71144    
     97900  -173393.73      929.47927     -172464.25      192.03673      193.8991       921.02061    
     98000  -173407.07      938.7534      -172468.32      192.04578      193.94543      921.32978    
     98100  -173395.98      940.43337     -172455.54      192.053        193.98965      921.63895    
     98200  -173390.49      945.18266     -172445.3       192.06062      194.036        921.94812    
     98300  -173400.54      947.80353     -172452.73      192.07163      194.08585      922.25729    
     98400  -173410.61      932.55871     -172478.05      192.08345      194.13737      922.56647    
     98500  -173423.24      931.20407     -172492.03      192.08951      194.1846       922.87564    
     98600  -173421.42      935.76079     -172485.66      192.09433      194.23033      923.18481    
     98700  -173408.92      938.14521     -172470.77      192.09903      194.27823      923.49398    
     98800  -173420.07      956.41099     -172463.66      192.10017      194.32666      923.80315    
     98900  -173434.1       956.34206     -172477.76      192.0983       194.36995      924.11232    
     99000  -173441.7       936.3776      -172505.32      192.09929      194.40788      924.42149    
     99100  -173449.55      931.88478     -172517.66      192.10029      194.44339      924.73066    
     99200  -173441.61      934.98012     -172506.63      192.10025      194.47667      925.03983    
     99300  -173439.65      950.17605     -172489.47      192.09975      194.51028      925.34901    
     99400  -173446.24      956.41987     -172489.82      192.09348      194.54517      925.65818    
     99500  -173461.2       945.00613     -172516.2       192.08563      194.58511      925.96735    
     99600  -173472.08      924.28332     -172547.8       192.07898      194.62673      926.27652    
     99700  -173478.74      922.76507     -172555.97      192.07215      194.66695      926.58569    
     99800  -173477.47      945.02153     -172532.45      192.06891      194.70826      926.89486    
     99900  -173470.02      960.18002     -172509.84      192.06705      194.75018      927.20403    
    100000  -173473.64      954.29727     -172519.34      192.06316      194.78729      927.5132     
Loop time of 26880.2 on 16 procs for 100000 steps with 24300 atoms

Performance: 0.321 ns/day, 74.667 hours/ns, 3.720 timesteps/s, 90.401 katom-step/s
47.5% CPU use with 16 MPI tasks x 1 OpenMP threads

MPI task timing breakdown:
Section |  min time  |  avg time  |  max time  |%varavg| %total
---------------------------------------------------------------
Pair    | 3020.6     | 4675.6     | 6726.4     |1747.9 | 17.39
Neigh   | 44.564     | 63.513     | 89.614     | 176.8 |  0.24
Comm    | 3014.8     | 4979.7     | 6635.6     |1644.1 | 18.53
Output  | 66.116     | 68.47      | 71.279     |  18.7 |  0.25
Modify  | 14714      | 15185      | 15653      | 215.9 | 56.49
Other   |            | 1908       |            |       |  7.10

Nlocal:        1518.75 ave        4254 max         316 min
Histogram: 6 3 1 1 1 1 0 1 0 2
Nghost:        3347.25 ave        6033 max        1347 min
Histogram: 5 2 1 0 2 0 1 1 0 4
Neighs:              0 ave           0 max           0 min
Histogram: 16 0 0 0 0 0 0 0 0 0

Total # of neighbors = 0
Ave neighs/atom = 0
Neighbor list builds = 933
Dangerous builds = 0
Total wall time: 7:28:02
