LAMMPS (2 Aug 2023 - Update 3)
OMP_NUM_THREADS environment is not set. Defaulting to 1 thread. (src/comm.cpp:98)
  using 1 OpenMP thread(s) per MPI task
Reading data file ...
  orthogonal box = (-100 -100 -2.3312515) to (100 100 46.166171)
  4 by 8 by 1 MPI processor grid
  reading atoms ...
  1480 atoms
  read_data CPU = 0.006 seconds
Replication is creating a 1x1x19 = 19 times larger system...
  orthogonal box = (-100 -100 -2.3312515) to (100 100 919.11979)
  2 by 2 by 8 MPI processor grid
  28120 atoms
  replicate CPU = 0.002 seconds
6840 atoms in group SR
Deleted 6840 atoms, new total = 21280
System init for write_data ...
WARNING: Communication cutoff is 0.0. No ghost atoms will be generated. Atoms may get lost. (src/comm_brick.cpp:210)
Reading airebo potential file CH.airebo with DATE: 2011-10-25
Reading airebo potential file CH.airebo with DATE: 2011-10-25
Reading airebo potential file CH.airebo with DATE: 2011-10-25
Neighbor list info ...
  update: every = 1 steps, delay = 0 steps, check = yes
  max neighbors/atom: 2000, page size: 100000
  master list distance cutoff = 13.2
  ghost atom cutoff = 13.2
  binsize = 6.6, bins = 31 31 140
  6 neighbor lists, perpetual/occasional/extra = 6 0 0
  (1) pair airebo, perpetual, skip from (5)
      attributes: full, newton on, ghost
      pair build: skip/ghost
      stencil: none
      bin: none
  (2) pair airebo, perpetual, skip from (5)
      attributes: full, newton on, ghost
      pair build: skip/ghost
      stencil: none
      bin: none
  (3) pair airebo, perpetual, skip from (5)
      attributes: full, newton on, ghost
      pair build: skip/ghost
      stencil: none
      bin: none
  (4) pair lj/cut, perpetual, skip from (6)
      attributes: half, newton on, cut 13
      pair build: skip
      stencil: none
      bin: none
  (5) neighbor class addition, perpetual
      attributes: full, newton on, ghost
      pair build: full/bin/ghost
      stencil: full/ghost/bin/3d
      bin: standard
  (6) neighbor class addition, perpetual
      attributes: half, newton on, cut 13
      pair build: half/bin/atomonly/newton
      stencil: half/bin/3d
      bin: standard
Setting up sd style minimization ...
  Unit style    : metal
  Current step  : 0
Per MPI rank memory allocation (min/avg/max) = 11.75 | 11.75 | 11.75 Mbytes
   Step          Temp          E_pair         E_mol          TotEng         Press     
         0   0             -157739.81      0             -157739.81     -48.029154    
         1   0             -157740.04      0             -157740.04     -47.94229     
Loop time of 0.0339901 on 32 procs for 1 steps with 21280 atoms

98.0% CPU use with 32 MPI tasks x 1 OpenMP threads

Minimization stats:
  Stopping criterion = energy tolerance
  Energy initial, next-to-last, final = 
     -157739.809039866  -157739.809039866  -157740.035152987
  Force two-norm initial, final = 7.6570642 1.2457464
  Force max component initial, final = 0.052442243 0.0085447709
  Final line search alpha, max atom move = 1 0.0085447709
  Iterations, force evaluations = 1 2

MPI task timing breakdown:
Section |  min time  |  avg time  |  max time  |%varavg| %total
---------------------------------------------------------------
Pair    | 0.028444   | 0.030586   | 0.033104   |   0.9 | 89.99
Neigh   | 0          | 0          | 0          |   0.0 |  0.00
Comm    | 0.0004573  | 0.0028397  | 0.0049736  |   2.8 |  8.35
Output  | 0          | 0          | 0          |   0.0 |  0.00
Modify  | 0          | 0          | 0          |   0.0 |  0.00
Other   |            | 0.0005642  |            |       |  1.66

Nlocal:            665 ave         713 max         617 min
Histogram: 8 0 0 0 4 12 0 0 0 8
Nghost:           2583 ave        2631 max        2535 min
Histogram: 8 0 0 0 4 12 0 0 0 8
Neighs:              0 ave           0 max           0 min
Histogram: 32 0 0 0 0 0 0 0 0 0

Total # of neighbors = 0
Ave neighs/atom = 0
Neighbor list builds = 0
Dangerous builds = 0
Setting up Verlet run ...
  Unit style    : metal
  Current step  : 1
  Time step     : 0.001
Per MPI rank memory allocation (min/avg/max) = 12.37 | 12.37 | 12.37 Mbytes
   Step          Temp          E_pair         E_mol          TotEng         Press          Volume    
         1   300           -157740.04      0             -156914.88     -24.029847      36858041     
Loop time of 5.74659e-05 on 32 procs for 0 steps with 21280 atoms

72.3% CPU use with 32 MPI tasks x 1 OpenMP threads

MPI task timing breakdown:
Section |  min time  |  avg time  |  max time  |%varavg| %total
---------------------------------------------------------------
Pair    | 0          | 0          | 0          |   0.0 |  0.00
Neigh   | 0          | 0          | 0          |   0.0 |  0.00
Comm    | 0          | 0          | 0          |   0.0 |  0.00
Output  | 0          | 0          | 0          |   0.0 |  0.00
Modify  | 0          | 0          | 0          |   0.0 |  0.00
Other   |            | 5.747e-05  |            |       |100.00

Nlocal:            665 ave         665 max         665 min
Histogram: 32 0 0 0 0 0 0 0 0 0
Nghost:           2583 ave        2583 max        2583 min
Histogram: 32 0 0 0 0 0 0 0 0 0
Neighs:              0 ave           0 max           0 min
Histogram: 32 0 0 0 0 0 0 0 0 0

Total # of neighbors = 0
Ave neighs/atom = 0
Neighbor list builds = 0
Dangerous builds = 0
WARNING: Dump 2 includes no atom IDs and is not sorted by ID. This may complicate post-processing tasks or visualization (src/dump.cpp:221)
Setting up Verlet run ...
  Unit style    : metal
  Current step  : 0
  Time step     : 0.001
Per MPI rank memory allocation (min/avg/max) = 13.87 | 13.87 | 13.87 Mbytes
   Step         PotEng         KinEng         TotEng           Lx             Ly             Lz      
         0  -157740.04      825.15799     -156914.88      200            200            921.45104    
       100  -157266.91      405.94736     -156860.96      199.99451      199.99325      921.91176    
       200  -157290.59      501.77435     -156788.82      199.99257      199.99033      922.37249    
       300  -157215.62      513.21117     -156702.41      199.99834      199.9953       922.83321    
       400  -157174.74      566.97587     -156607.76      199.99015      199.98608      923.29394    
       500  -157123.23      616.01726     -156507.22      199.9922       199.98702      923.75466    
       600  -157082.78      679.39972     -156403.38      199.99623      199.98982      924.21539    
       700  -157020.98      720.18938     -156300.79      199.98596      199.97897      924.67612    
       800  -156968.57      764.00508     -156204.56      199.99195      199.98428      925.13684    
       900  -156933.35      812.05565     -156121.29      199.99217      199.98366      925.59757    
      1000  -156891.54      831.16732     -156060.38      199.98049      199.97098      926.05829    
      1100  -156884.57      849.6177      -156034.96      199.98857      199.97798      926.51902    
      1200  -156888.68      837.53685     -156051.14      199.98415      199.97327      926.97974    
      1300  -156903.77      819.08242     -156084.69      199.97486      199.9635       927.44047    
      1400  -156907.16      805.57465     -156101.59      199.98329      199.9712       927.90119    
      1500  -156897.91      811.25345     -156086.65      199.97493      199.96163      928.36192    
      1600  -156880.2       827.16443     -156053.03      199.96966      199.95601      928.82265    
      1700  -156865.06      836.80903     -156028.25      199.97679      199.96306      929.28337    
      1800  -156870.59      841.86852     -156028.72      199.96437      199.95018      929.7441     
      1900  -156874.44      826.48334     -156047.96      199.96119      199.94711      930.20482    
      2000  -156882.5       821.19798     -156061.3       199.96537      199.95088      930.66555    
      2100  -156867.3       816.42212     -156050.87      199.95106      199.9366       931.12627    
      2200  -156847.79      824.11929     -156023.67      199.95236      199.93816      931.587      
      2300  -156831.84      833.43272     -155998.4       199.95242      199.93835      932.04772    
      2400  -156833.63      839.54219     -155994.09      199.93807      199.92387      932.50845    
      2500  -156828.61      821.12016     -156007.49      199.94078      199.92662      932.96917    
      2600  -156838.74      821.68137     -156017.06      199.93688      199.92295      933.4299     
      2700  -156826.58      817.23168     -156009.35      199.92321      199.90933      933.89063    
      2800  -156802.15      818.20766     -155983.95      199.9261       199.91264      934.35135    
      2900  -156791.7       836.26454     -155955.44      199.91843      199.90475      934.81208    
      3000  -156781.23      837.28327     -155943.95      199.90744      199.89393      935.2728     
      3100  -156776.64      823.79714     -155952.84      199.91059      199.89716      935.73353    
      3200  -156781.1       818.30424     -155962.8       199.89953      199.8863       936.19425    
      3300  -156770.37      810.88781     -155959.48      199.89082      199.87706      936.65498    
      3400  -156758.74      821.10266     -155937.64      199.89312      199.87846      937.1157     
      3500  -156733.88      825.74268     -155908.14      199.88004      199.86488      937.57643    
      3600  -156722.86      830.98168     -155891.88      199.874        199.85792      938.03716    
      3700  -156719.74      827.46928     -155892.27      199.87374      199.85663      938.49788    
      3800  -156720.97      822.2481      -155898.72      199.85999      199.84165      938.95861    
      3900  -156717.39      820.05531     -155897.33      199.85582      199.8365       939.41933    
      4000  -156701.17      821.87597     -155879.3       199.85338      199.83315      939.88006    
      4100  -156679.72      826.01124     -155853.71      199.83941      199.81792      940.34078    
      4200  -156671.11      837.04542     -155834.06      199.83629      199.81332      940.80151    
      4300  -156654.92      827.50262     -155827.42      199.83181      199.80716      941.26223    
      4400  -156651.17      821.92595     -155829.24      199.81766      199.79163      941.72296    
      4500  -156646.62      819.68722     -155826.93      199.81449      199.78741      942.18369    
      4600  -156634.72      823.94778     -155810.77      199.80734      199.77869      942.64441    
      4700  -156612.16      825.92185     -155786.24      199.79374      199.76351      943.10514    
      4800  -156589.91      824.06054     -155765.85      199.79131      199.75977      943.56586    
      4900  -156583.38      827.76459     -155755.62      199.78197      199.74927      944.02659    
      5000  -156583.16      829.48736     -155753.67      199.7684       199.73424      944.48731    
      5100  -156566.75      817.84225     -155748.91      199.76549      199.72948      944.94804    
      5200  -156556.96      823.4943      -155733.47      199.75424      199.7169       945.40876    
      5300  -156534.6       824.42655     -155710.18      199.74114      199.70255      945.86949    
      5400  -156514.6       826.31128     -155688.29      199.73728      199.6976       946.33021    
      5500  -156504.22      831.18382     -155673.03      199.72383      199.68289      946.79094    
      5600  -156490.37      823.29102     -155667.08      199.71195      199.66963      947.25167    
      5700  -156474.57      812.91382     -155661.66      199.70687      199.66365      947.71239    
      5800  -156471.2       821.90723     -155649.3       199.69196      199.64784      948.17312    
      5900  -156450.53      821.80617     -155628.73      199.68034      199.63552      948.63384    
      6000  -156427.65      822.72365     -155604.93      199.67348      199.62792      949.09457    
      6100  -156412.29      826.96544     -155585.32      199.65758      199.61126      949.55529    
      6200  -156397.3       822.19762     -155575.1       199.64627      199.59952      950.01602    
      6300  -156389.63      821.79865     -155567.83      199.63773      199.59003      950.47674    
      6400  -156376.5       821.49513     -155555         199.62088      199.57263      950.93747    
      6500  -156363.42      827.57947     -155535.84      199.61036      199.56144      951.3982     
      6600  -156335.83      823.66139     -155512.16      199.59984      199.55059      951.85892    
      6700  -156322.14      831.68108     -155490.46      199.58208      199.53275      952.31965    
      6800  -156302.37      826.55599     -155475.82      199.57145      199.52197      952.78037    
      6900  -156285.63      820.57229     -155465.06      199.55879      199.50885      953.2411     
      7000  -156275.08      822.04742     -155453.03      199.54027      199.49028      953.70182    
      7100  -156256.07      821.97599     -155434.09      199.52931      199.47941      954.16255    
      7200  -156239.21      829.56687     -155409.64      199.5152       199.46493      954.62327    
      7300  -156211.61      825.06484     -155386.55      199.49672      199.44602      955.084      
      7400  -156195.4       825.38918     -155370.01      199.48505      199.43404      955.54473    
      7500  -156183.07      825.64151     -155357.42      199.46938      199.41821      956.00545    
      7600  -156165.79      822.39207     -155343.39      199.45027      199.3992       956.46618    
      7700  -156148.96      823.92311     -155325.04      199.43789      199.38669      956.9269     
      7800  -156123.35      822.32181     -155301.03      199.4206       199.36869      957.38763    
      7900  -156103.92      827.80657     -155276.12      199.40125      199.34926      957.84835    
      8000  -156084.2       828.4987      -155255.7       199.38849      199.33654      958.30908    
      8100  -156065.06      825.31438     -155239.74      199.36954      199.31766      958.7698     
      8200  -156050.22      824.3245      -155225.89      199.35053      199.29762      959.23053    
      8300  -156031.53      822.30665     -155209.22      199.33695      199.28397      959.69126    
      8400  -156012.61      828.37661     -155184.23      199.31653      199.26349      960.15198    
      8500  -155981.15      824.07233     -155157.08      199.2979       199.24382      960.61271    
      8600  -155962.39      829.19823     -155133.19      199.28353      199.22851      961.07343    
      8700  -155942.84      827.15477     -155115.69      199.26238      199.20651      961.53416    
      8800  -155921.05      820.11415     -155100.94      199.24317      199.18634      961.99488    
      8900  -155909.86      826.68883     -155083.17      199.22832      199.17041      962.45561    
      9000  -155881.34      822.7465      -155058.59      199.20614      199.14714      962.91633    
      9100  -155851.31      821.65767     -155029.66      199.18712      199.12622      963.37706    
      9200  -155837.56      835.42229     -155002.14      199.17136      199.10928      963.83778    
      9300  -155803.7       822.91403     -154980.78      199.14788      199.0848       964.29851    
      9400  -155784.14      817.27883     -154966.86      199.12876      199.06438      964.75924    
      9500  -155771.85      820.51693     -154951.33      199.11143      199.04553      965.21996    
      9600  -155751.36      823.35264     -154928.01      199.0874       199.02005      965.68069    
      9700  -155721.2       823.53956     -154897.66      199.06827      199.00005      966.14141    
      9800  -155698.16      830.94031     -154867.22      199.04939      198.98015      966.60214    
      9900  -155671.06      828.55155     -154842.51      199.02404      198.95361      967.06286    
     10000  -155653.7       828.09433     -154825.61      199.00482      198.93316      967.52359    
     10100  -155634         825.63499     -154808.36      198.98412      198.91156      967.98431    
     10200  -155608.59      823.44366     -154785.15      198.95852      198.88549      968.44504    
     10300  -155584.54      828.33038     -154756.21      198.93906      198.86555      968.90577    
     10400  -155539.76      813.75872     -154726.01      198.9163       198.84212      969.36649    
     10500  -155526.82      829.01812     -154697.8       198.88979      198.81496      969.82722    
     10600  -155505.15      828.77054     -154676.38      198.87088      198.79581      970.28794    
     10700  -155480.22      822.97461     -154657.25      198.8469       198.77129      970.74867    
     10800  -155458.45      823.00847     -154635.44      198.82016      198.74398      971.20939    
     10900  -155425.96      819.42878     -154606.53      198.80076      198.72411      971.67012    
     11000  -155399.31      827.11372     -154572.19      198.77582      198.69883      972.13084    
     11100  -155371.95      828.06342     -154543.89      198.74973      198.67284      972.59157    
     11200  -155349.22      825.74541     -154523.47      198.72918      198.65219      973.0523     
     11300  -155328.71      822.73193     -154505.98      198.70297      198.6258       973.51302    
     11400  -155298.61      816.0041      -154482.61      198.67733      198.60025      973.97375    
     11500  -155273.69      821.89251     -154451.8       198.65647      198.57983      974.43447    
     11600  -155245.5       828.59358     -154416.9       198.62946      198.55312      974.8952     
     11700  -155220.21      834.30102     -154385.91      198.60393      198.52777      975.35592    
     11800  -155187.52      826.31436     -154361.2       198.58233      198.50629      975.81665    
     11900  -155167.91      828.81464     -154339.09      198.55543      198.47965      976.27737    
     12000  -155135.58      818.9908      -154316.59      198.53093      198.45541      976.7381     
     12100  -155112.8       825.96838     -154286.83      198.50836      198.43287      977.19882    
     12200  -155076.32      824.61985     -154251.7       198.48167      198.40625      977.65955    
     12300  -155041.7       823.8258      -154217.87      198.45746      198.38229      978.12028    
     12400  -155023.06      832.09569     -154190.97      198.43448      198.35953      978.581      
     12500  -154999.5       831.10034     -154168.4       198.40808      198.33313      979.04173    
     12600  -154961.93      815.97171     -154145.96      198.38483      198.30957      979.50245    
     12700  -154936.32      818.61637     -154117.7       198.3616       198.28619      979.96318    
     12800  -154908.41      825.7725      -154082.64      198.33593      198.26033      980.4239     
     12900  -154873.46      827.14899     -154046.31      198.31346      198.23717      980.88463    
     13000  -154847.16      831.58387     -154015.58      198.29037      198.21353      981.34535    
     13100  -154817.3       826.8346      -153990.46      198.26505      198.18774      981.80608    
     13200  -154786.56      821.4044      -153965.16      198.24302      198.1653       982.26681    
     13300  -154755.11      819.4039      -153935.71      198.22084      198.14229      982.72753    
     13400  -154727.05      825.60862     -153901.44      198.19621      198.11676      983.18826    
     13500  -154693.5       827.32097     -153866.18      198.17555      198.09509      983.64898    
     13600  -154663.7       829.69133     -153834.01      198.15381      198.07204      984.10971    
     13700  -154633.2       827.58006     -153805.62      198.12988      198.0466       984.57043    
     13800  -154608.38      828.49946     -153779.88      198.11041      198.02558      985.03116    
     13900  -154573.47      822.21682     -153751.25      198.08832      198.00245      985.49188    
     14000  -154540.89      823.3121      -153717.58      198.06549      197.97808      985.95261    
     14100  -154504.69      824.83075     -153679.86      198.04637      197.95767      986.41334    
     14200  -154471.8       829.18689     -153642.61      198.02442      197.9341       986.87406    
     14300  -154433.04      821.13335     -153611.91      198.00353      197.91146      987.33479    
     14400  -154407.72      822.41874     -153585.3       197.98493      197.89137      987.79551    
     14500  -154383         824.64069     -153558.36      197.96348      197.86821      988.25624    
     14600  -154356.4       830.26214     -153526.14      197.94375      197.84682      988.71696    
     14700  -154314.05      824.83215     -153489.22      197.92591      197.8276       989.17769    
     14800  -154277.55      827.64853     -153449.9       197.90436      197.80494      989.63841    
     14900  -154242.5       828.04771     -153414.46      197.88578      197.78536      990.09914    
     15000  -154208.84      825.14955     -153383.69      197.8685       197.76655      990.55986    
     15100  -154176.84      819.95308     -153356.88      197.84832      197.74531      991.02059    
     15200  -154147.38      819.65532     -153327.73      197.83074      197.72683      991.48132    
     15300  -154118.38      826.75524     -153291.63      197.81348      197.70882      991.94204    
     15400  -154077.37      827.25935     -153250.11      197.79444      197.68831      992.40277    
     15500  -154037.32      826.74638     -153210.58      197.77815      197.67097      992.86349    
     15600  -154006.29      829.21045     -153177.08      197.76107      197.6535       993.32422    
     15700  -153975.41      823.19826     -153152.21      197.74244      197.63426      993.78494    
     15800  -153938.68      815.57547     -153123.1       197.72661      197.61776      994.24567    
     15900  -153906.27      822.93692     -153083.33      197.71058      197.60124      994.70639    
     16000  -153872.17      828.77764     -153043.4       197.69282      197.5833       995.16712    
     16100  -153831.12      825.76711     -153005.36      197.67753      197.56787      995.62785    
     16200  -153790.24      821.76351     -152968.48      197.66202      197.55183      996.08857    
     16300  -153756.57      824.1072      -152932.46      197.64544      197.53521      996.5493     
     16400  -153731.12      833.06833     -152898.05      197.63051      197.5206       997.01002    
     16500  -153684.54      816.88683     -152867.66      197.61523      197.50554      997.47075    
     16600  -153661.66      825.66127     -152836         197.59907      197.48941      997.93147    
     16700  -153616.06      819.17325     -152796.89      197.58478      197.4753       998.3922     
     16800  -153575.51      826.81856     -152748.69      197.56983      197.46145      998.85292    
     16900  -153542.72      831.61127     -152711.11      197.55467      197.44724      999.31365    
     17000  -153510.64      830.22396     -152680.42      197.54095      197.43359      999.77438    
     17100  -153463.79      815.82357     -152647.96      197.52644      197.41969      1000.2351    
     17200  -153435.29      824.9376      -152610.35      197.51194      197.40622      1000.6958    
     17300  -153392.28      833.54111     -152558.74      197.49909      197.39418      1001.1566    
     17400  -153350.22      830.86829     -152519.35      197.48527      197.38047      1001.6173    
     17500  -153317.35      826.54369     -152490.8       197.47124      197.36673      1002.078     
     17600  -153285.13      826.13687     -152458.99      197.45902      197.35518      1002.5387    
     17700  -153240.48      818.93378     -152421.54      197.44595      197.34293      1002.9995    
     17800  -153205.61      829.45999     -152376.15      197.43292      197.32985      1003.4602    
     17900  -153154.5       826.61826     -152327.88      197.42175      197.31844      1003.9209    
     18000  -153126.05      832.90251     -152293.15      197.40971      197.30651      1004.3816    
     18100  -153091.69      829.90443     -152261.78      197.39694      197.29431      1004.8424    
     18200  -153051.84      824.23414     -152227.6       197.38615      197.28314      1005.3031    
     18300  -153012.6       823.1808      -152189.42      197.37461      197.27061      1005.7638    
     18400  -152968.43      826.53863     -152141.89      197.36305      197.2585       1006.2245    
     18500  -152923.29      829.49197     -152093.8       197.35219      197.24801      1006.6853    
     18600  -152887.3       828.97455     -152058.33      197.34103      197.23612      1007.146     
     18700  -152853.61      827.1625      -152026.45      197.33057      197.22418      1007.6067    
     18800  -152819.22      828.38008     -151990.84      197.32115      197.21367      1008.0674    
     18900  -152769.38      819.70059     -151949.68      197.30919      197.2017       1008.5282    
     19000  -152726.66      820.20713     -151906.46      197.29856      197.19048      1008.9889    
     19100  -152689.77      825.1644      -151864.6       197.28971      197.1802       1009.4496    
     19200  -152649.56      824.38509     -151825.18      197.27846      197.16804      1009.9103    
     19300  -152609.86      824.94631     -151784.91      197.26746      197.15701      1010.3711    
     19400  -152564.98      819.85388     -151745.13      197.25853      197.14771      1010.8318    
     19500  -152532.56      828.62356     -151703.93      197.24759      197.13548      1011.2925    
     19600  -152488.66      828.01891     -151660.64      197.23817      197.12509      1011.7532    
     19700  -152438.6       824.23408     -151614.36      197.2287       197.11561      1012.214     
     19800  -152401.87      829.59617     -151572.27      197.21747      197.10393      1012.6747    
     19900  -152367.29      828.1436      -151539.14      197.20832      197.0937       1013.1354    
     20000  -152325.9       821.25765     -151504.64      197.19888      197.08367      1013.5961    
     20100  -152285.27      825.0799      -151460.19      197.18774      197.0724       1014.0569    
     20200  -152236.46      824.06119     -151412.4       197.17874      197.06311      1014.5176    
     20300  -152194.22      825.22525     -151368.99      197.16916      197.05306      1014.9783    
     20400  -152147.86      820.84089     -151327.02      197.15857      197.04195      1015.439     
     20500  -152109.17      823.06711     -151286.1       197.14981      197.033        1015.8998    
     20600  -152068.41      820.01526     -151248.39      197.13943      197.02307      1016.3605    
     20700  -152039.76      828.28834     -151211.47      197.12872      197.01211      1016.8212    
     20800  -151980.98      816.44539     -151164.53      197.12031      197.0033       1017.2819    
     20900  -151941.81      830.62889     -151111.18      197.11005      196.99342      1017.7427    
     21000  -151896.59      830.01123     -151066.58      197.09927      196.98353      1018.2034    
     21100  -151847.96      821.02        -151026.94      197.0904       196.97522      1018.6641    
     21200  -151812.74      822.43685     -150990.3       197.07976      196.96484      1019.1248    
     21300  -151771.84      815.28786     -150956.55      197.06965      196.95547      1019.5856    
     21400  -151724.12      815.19247     -150908.93      197.06052      196.94766      1020.0463    
     21500  -151686.99      833.5263      -150853.46      197.05008      196.93815      1020.507     
     21600  -151632.44      825.28481     -150807.15      197.0401       196.9286       1020.9677    
     21700  -151596.97      833.6921      -150763.28      197.03077      196.92051      1021.4285    
     21800  -151547.2       826.59097     -150720.61      197.01943      196.91069      1021.8892    
     21900  -151506.37      829.04934     -150677.32      197.00933      196.90154      1022.3499    
     22000  -151451.34      821.38922     -150629.95      197.00018      196.89307      1022.8107    
     22100  -151408.12      828.89233     -150579.23      196.9891       196.88301      1023.2714    
     22200  -151354.88      824.24261     -150530.64      196.97906      196.87447      1023.7321    
     22300  -151315.11      824.71728     -150490.39      196.96939      196.8659       1024.1928    
     22400  -151278.6       821.24766     -150457.36      196.95857      196.85537      1024.6536    
     22500  -151233.33      819.63531     -150413.69      196.94918      196.8467       1025.1143    
     22600  -151183.09      821.30168     -150361.79      196.93864      196.83744      1025.575     
     22700  -151140.52      828.95433     -150311.57      196.92806      196.82698      1026.0357    
     22800  -151092.89      826.75        -150266.14      196.91909      196.8176       1026.4965    
     22900  -151037.08      814.97211     -150222.11      196.9087       196.80758      1026.9572    
     23000  -150998.02      819.59608     -150178.42      196.89833      196.79735      1027.4179    
     23100  -150955.26      823.11964     -150132.14      196.88939      196.78802      1027.8786    
     23200  -150908.77      825.16836     -150083.6       196.87974      196.77726      1028.3394    
     23300  -150854.12      821.00673     -150033.12      196.86943      196.76641      1028.8001    
     23400  -150813.2       829.59326     -149983.6       196.86033      196.75725      1029.2608    
     23500  -150769.5       832.32261     -149937.18      196.85056      196.74596      1029.7215    
     23600  -150727.8       828.04888     -149899.75      196.84108      196.73462      1030.1823    
     23700  -150677.14      817.93892     -149859.2       196.83208      196.72423      1030.643     
     23800  -150632         823.31276     -149808.68      196.82208      196.71355      1031.1037    
     23900  -150580.61      830.21573     -149750.4       196.81281      196.70233      1031.5644    
     24000  -150535.87      833.28847     -149702.58      196.80367      196.69067      1032.0252    
     24100  -150483.53      825.40189     -149658.13      196.79344      196.67914      1032.4859    
     24200  -150436.83      821.06977     -149615.76      196.78342      196.66809      1032.9466    
     24300  -150388.06      814.58885     -149573.47      196.77374      196.65634      1033.4073    
     24400  -150343.1       817.02875     -149526.07      196.76421      196.64441      1033.8681    
     24500  -150295.19      827.46259     -149467.73      196.75442      196.63306      1034.3288    
     24600  -150241.58      826.98905     -149414.59      196.74308      196.62134      1034.7895    
     24700  -150188.75      821.51569     -149367.23      196.73284      196.60945      1035.2502    
     24800  -150147.33      821.55056     -149325.78      196.72312      196.59776      1035.711     
     24900  -150108.54      819.67707     -149288.87      196.71175      196.58544      1036.1717    
     25000  -150054.82      815.43061     -149239.39      196.70053      196.57387      1036.6324    
     25100  -150003.77      819.67457     -149184.1       196.68952      196.56176      1037.0931    
     25200  -149950.92      819.43834     -149131.48      196.67859      196.54946      1037.5539    
     25300  -149906.06      828.2536      -149077.81      196.66682      196.53752      1038.0146    
     25400  -149855.11      828.33565     -149026.78      196.65531      196.52626      1038.4753    
     25500  -149797.06      819.63855     -148977.42      196.64352      196.51371      1038.936     
     25600  -149759.14      827.15723     -148931.98      196.63168      196.50127      1039.3968    
     25700  -149712.98      822.71649     -148890.27      196.61975      196.48993      1039.8575    
     25800  -149660.94      818.71431     -148842.23      196.60686      196.47734      1040.3182    
     25900  -149606.08      823.69922     -148782.38      196.59518      196.46471      1040.7789    
     26000  -149552.44      824.09811     -148728.34      196.58374      196.45352      1041.2397    
     26100  -149507.23      826.71714     -148680.51      196.56994      196.44092      1041.7004    
     26200  -149459.25      823.66842     -148635.58      196.55727      196.42882      1042.1611    
     26300  -149421.16      826.84211     -148594.32      196.54583      196.41717      1042.6218    
     26400  -149369.29      818.35256     -148550.94      196.53171      196.40393      1043.0826    
     26500  -149306.7       817.33977     -148489.36      196.51802      196.39213      1043.5433    
     26600  -149261.95      829.05791     -148432.89      196.50549      196.38052      1044.004     
     26700  -149212.14      832.9921      -148379.15      196.49105      196.3665       1044.4648    
     26800  -149154.26      826.48898     -148327.77      196.47732      196.35445      1044.9255    
     26900  -149096.46      818.49656     -148277.97      196.46361      196.34267      1045.3862    
     27000  -149053.68      823.87578     -148229.8       196.4485       196.32879      1045.8469    
     27100  -148999.49      815.31219     -148184.18      196.4354       196.31647      1046.3077    
     27200  -148951.87      817.89587     -148133.97      196.42083      196.30363      1046.7684    
     27300  -148897.79      824.73947     -148073.05      196.40523      196.2901       1047.2291    
     27400  -148846.25      828.16547     -148018.08      196.39214      196.27803      1047.6898    
     27500  -148794.34      826.58411     -147967.75      196.37679      196.26327      1048.1506    
     27600  -148748.68      826.43722     -147922.24      196.36155      196.24988      1048.6113    
     27700  -148700.11      816.92606     -147883.19      196.34756      196.23762      1049.072     
     27800  -148645.74      814.96831     -147830.78      196.33255      196.22269      1049.5327    
     27900  -148598.63      828.36095     -147770.27      196.31786      196.2085       1049.9935    
     28000  -148538.44      823.61136     -147714.83      196.30337      196.19567      1050.4542    
     28100  -148485.7       826.31628     -147659.39      196.28741      196.18053      1050.9149    
     28200  -148427.63      824.20211     -147603.43      196.27299      196.1654       1051.3756    
     28300  -148373.39      826.29097     -147547.1       196.25889      196.15138      1051.8364    
     28400  -148325.19      834.21124     -147490.98      196.24246      196.13594      1052.2971    
     28500  -148272.02      825.43594     -147446.58      196.22746      196.121        1052.7578    
     28600  -148223.31      819.92331     -147403.38      196.21359      196.10595      1053.2185    
     28700  -148168.75      817.20791     -147351.54      196.19792      196.09026      1053.6793    
     28800  -148116.39      823.47832     -147292.91      196.1825       196.07572      1054.14      
     28900  -148061.62      826.47618     -147235.15      196.16877      196.06126      1054.6007    
     29000  -148001.54      828.3043      -147173.23      196.15256      196.04368      1055.0614    
     29100  -147947.84      831.54597     -147116.3       196.13757      196.02847      1055.5222    
     29200  -147902.05      827.44707     -147074.6       196.12314      196.01461      1055.9829    
     29300  -147850.07      821.99027     -147028.08      196.10662      195.9967       1056.4436    
     29400  -147797.04      820.39078     -146976.65      196.09242      195.98124      1056.9043    
     29500  -147744.92      825.77894     -146919.14      196.07823      195.96697      1057.3651    
     29600  -147683.85      828.26814     -146855.59      196.06131      195.94973      1057.8258    
     29700  -147628.46      826.29676     -146802.16      196.047        195.93402      1058.2865    
     29800  -147580.58      826.47042     -146754.11      196.03322      195.919        1058.7472    
     29900  -147532.38      828.52982     -146703.85      196.01516      195.90076      1059.208     
     30000  -147478.21      825.51753     -146652.69      196.00058      195.88508      1059.6687    
     30100  -147418.65      819.99957     -146598.65      195.98656      195.86956      1060.1294    
     30200  -147361.04      827.49816     -146533.54      195.96877      195.85082      1060.5901    
     30300  -147313.45      837.58733     -146475.86      195.95343      195.83525      1061.0509    
     30400  -147255.11      827.43435     -146427.67      195.93962      195.82015      1061.5116    
     30500  -147204.66      822.28933     -146382.37      195.92238      195.80159      1061.9723    
     30600  -147151.33      822.08922     -146329.24      195.90684      195.7857       1062.433     
     30700  -147094.87      822.59939     -146272.27      195.89223      195.77063      1062.8938    
     30800  -147040.26      827.49949     -146212.76      195.87468      195.75186      1063.3545    
     30900  -146982.84      827.42587     -146155.42      195.85939      195.73558      1063.8152    
     31000  -146925.89      824.95317     -146100.94      195.84429      195.72045      1064.2759    
     31100  -146872.4       824.57169     -146047.83      195.82654      195.70249      1064.7367    
     31200  -146816.81      822.82918     -145993.98      195.81071      195.68568      1065.1974    
     31300  -146763.62      826.1603      -145937.46      195.79587      195.67026      1065.6581    
     31400  -146706.32      829.367       -145876.95      195.77821      195.65312      1066.1188    
     31500  -146649.28      835.29851     -145813.98      195.76154      195.63584      1066.5796    
     31600  -146589.65      828.88776     -145760.76      195.74733      195.62084      1067.0403    
     31700  -146546.59      826.19878     -145720.39      195.7295       195.60299      1067.501     
     31800  -146489.38      821.43004     -145667.95      195.71181      195.58582      1067.9618    
     31900  -146428.5       822.99256     -145605.51      195.69671      195.57027      1068.4225    
     32000  -146369.43      826.49249     -145542.94      195.6795       195.55251      1068.8832    
     32100  -146317.54      831.34258     -145486.19      195.66146      195.53514      1069.3439    
     32200  -146261.68      828.78253     -145432.89      195.64591      195.52019      1069.8047    
     32300  -146207.42      822.702       -145384.72      195.62856      195.50275      1070.2654    
     32400  -146155.31      817.35471     -145337.96      195.61014      195.4849       1070.7261    
     32500  -146093.09      817.88717     -145275.2       195.59408      195.46982      1071.1868    
     32600  -146034.03      823.18854     -145210.84      195.57634      195.45253      1071.6476    
     32700  -145978.95      828.78571     -145150.16      195.55764      195.43416      1072.1083    
     32800  -145922.5       831.64912     -145090.85      195.54141      195.4187       1072.569     
     32900  -145864.51      829.02842     -145035.49      195.52352      195.40231      1073.0297    
     33000  -145808.9       823.42113     -144985.48      195.50427      195.3835       1073.4905    
     33100  -145755.46      818.82942     -144936.63      195.48828      195.3681       1073.9512    
     33200  -145702.55      824.562       -144877.98      195.4711       195.35191      1074.4119    
     33300  -145631.32      821.24576     -144810.07      195.45187      195.33354      1074.8726    
     33400  -145578.85      827.03628     -144751.81      195.43577      195.31789      1075.3334    
     33500  -145521.58      826.60059     -144694.98      195.41792      195.30047      1075.7941    
     33600  -145462.91      824.3813      -144638.53      195.39923      195.2824       1076.2548    
     33700  -145407.5       827.55313     -144579.94      195.38318      195.26681      1076.7155    
     33800  -145347.86      829.31033     -144518.55      195.36544      195.24892      1077.1763    
     33900  -145289.95      830.90303     -144459.05      195.3468       195.23049      1077.637     
     34000  -145230.62      824.02745     -144406.59      195.33072      195.21449      1078.0977    
     34100  -145184.59      825.73886     -144358.85      195.31319      195.19645      1078.5584    
     34200  -145118.43      814.70613     -144303.72      195.29542      195.17827      1079.0192    
     34300  -145063.74      829.68282     -144234.06      195.27899      195.16174      1079.4799    
     34400  -144999.37      826.0363      -144173.34      195.26188      195.14374      1079.9406    
     34500  -144944.8       826.68981     -144118.11      195.24464      195.12515      1080.4013    
     34600  -144889.9       823.56313     -144066.34      195.22817      195.10799      1080.8621    
     34700  -144836.56      823.13881     -144013.42      195.21054      195.08974      1081.3228    
     34800  -144769.69      819.9118      -143949.78      195.19339      195.07127      1081.7835    
     34900  -144706.33      825.06288     -143881.27      195.17717      195.05369      1082.2442    
     35000  -144656.8       835.03879     -143821.77      195.15976      195.03559      1082.705     
     35100  -144595.63      826.94961     -143768.68      195.14301      195.01774      1083.1657    
     35200  -144542.76      824.18111     -143718.58      195.12664      194.99975      1083.6264    
     35300  -144491.39      824.97932     -143666.41      195.10944      194.98171      1084.0871    
     35400  -144425.58      822.89356     -143602.68      195.0921       194.96407      1084.5479    
     35500  -144359.75      826.68148     -143533.07      195.07584      194.94605      1085.0086    
     35600  -144299.68      828.52353     -143471.16      195.05911      194.92788      1085.4693    
     35700  -144236.71      822.40206     -143414.31      195.04179      194.91054      1085.93      
     35800  -144182.79      820.29376     -143362.5       195.0247       194.89263      1086.3908    
     35900  -144132.61      821.4542      -143311.16      195.00789      194.87475      1086.8515    
     36000  -144075.27      824.18938     -143251.08      194.99124      194.85764      1087.3122    
     36100  -144007.52      828.16476     -143179.36      194.97385      194.84025      1087.7729    
     36200  -143954.82      835.65825     -143119.16      194.95703      194.82269      1088.2337    
     36300  -143886         821.9514      -143064.05      194.94014      194.80493      1088.6944    
     36400  -143835.27      824.12558     -143011.15      194.92285      194.78803      1089.1551    
     36500  -143779.91      822.18454     -142957.73      194.90633      194.77144      1089.6159    
     36600  -143717.45      824.41945     -142893.03      194.88953      194.75412      1090.0766    
     36700  -143647.72      824.10042     -142823.62      194.87264      194.73748      1090.5373    
     36800  -143592.06      829.29166     -142762.77      194.85625      194.7218       1090.998     
     36900  -143527.84      821.29837     -142706.54      194.83949      194.70514      1091.4588    
     37000  -143474.01      820.58239     -142653.42      194.82223      194.68822      1091.9195    
     37100  -143420.06      819.53779     -142600.52      194.80602      194.67299      1092.3802    
     37200  -143358.48      821.56139     -142536.92      194.78917      194.657        1092.8409    
     37300  -143292.08      825.51296     -142466.57      194.77214      194.64074      1093.3017    
     37400  -143234.15      829.69746     -142404.45      194.7561       194.62587      1093.7624    
     37500  -143177.49      831.12708     -142346.36      194.73928      194.61035      1094.2231    
     37600  -143112.26      822.338       -142289.92      194.72124      194.59357      1094.6838    
     37700  -143060.24      822.91093     -142237.33      194.7062       194.57986      1095.1446    
     37800  -142999.16      818.64245     -142180.52      194.68954      194.56479      1095.6053    
     37900  -142937.24      826.22397     -142111.02      194.67146      194.54806      1096.066     
     38000  -142868.1       823.32083     -142044.78      194.65637      194.53405      1096.5267    
     38100  -142808.57      824.10961     -141984.46      194.64014      194.51942      1096.9875    
     38200  -142750.15      823.99101     -141926.16      194.62258      194.5031       1097.4482    
     38300  -142692.31      819.55311     -141872.76      194.60766      194.48933      1097.9089    
     38400  -142638.58      818.45884     -141820.13      194.59234      194.47521      1098.3696    
     38500  -142577.25      822.59487     -141754.65      194.57511      194.45907      1098.8304    
     38600  -142508.32      823.47793     -141684.84      194.56043      194.44494      1099.2911    
     38700  -142449.05      826.82761     -141622.22      194.54529      194.43051      1099.7518    
     38800  -142386.13      824.07634     -141562.06      194.52884      194.41509      1100.2125    
     38900  -142327.27      822.46997     -141504.8       194.51459      194.40095      1100.6733    
     39000  -142272.01      819.92916     -141452.08      194.49964      194.38621      1101.134     
     39100  -142211.8       818.21348     -141393.59      194.48387      194.37092      1101.5947    
     39200  -142141.47      819.919       -141321.55      194.47009      194.35708      1102.0554    
     39300  -142080.73      824.2464      -141256.48      194.45566      194.34235      1102.5162    
     39400  -142019.28      824.07005     -141195.21      194.44028      194.32696      1102.9769    
     39500  -141964.3       828.27087     -141136.03      194.42633      194.31279      1103.4376    
     39600  -141899.69      820.92994     -141078.76      194.41198      194.29801      1103.8983    
     39700  -141841.9       821.16041     -141020.74      194.39702      194.28262      1104.3591    
     39800  -141774.92      818.86499     -140956.06      194.38308      194.26809      1104.8198    
     39900  -141710.76      825.07676     -140885.69      194.36882      194.25334      1105.2805    
     40000  -141652.54      829.21866     -140823.33      194.35448      194.23814      1105.7412    
     40100  -141589.8       821.35302     -140768.45      194.34078      194.22366      1106.202     
     40200  -141533.01      818.90652     -140714.11      194.32664      194.20855      1106.6627    
     40300  -141475.12      820.53436     -140654.58      194.31313      194.19383      1107.1234    
     40400  -141409.49      827.59728     -140581.89      194.29936      194.17939      1107.5841    
     40500  -141339.98      825.46339     -140514.52      194.28558      194.16423      1108.0449    
     40600  -141287.86      829.88743     -140457.97      194.27244      194.14956      1108.5056    
     40700  -141229.37      824.21773     -140405.15      194.25859      194.13467      1108.9663    
     40800  -141169.24      823.14716     -140346.1       194.24497      194.11967      1109.427     
     40900  -141109.78      831.76658     -140278.02      194.23218      194.105        1109.8878    
     41000  -141035.27      828.32408     -140206.94      194.21964      194.09092      1110.3485    
     41100  -140976.63      829.60999     -140147.02      194.20582      194.07564      1110.8092    
     41200  -140913.6       821.85793     -140091.74      194.19285      194.06099      1111.27      
     41300  -140853.72      819.60005     -140034.12      194.18034      194.04699      1111.7307    
     41400  -140795.66      823.01871     -139972.64      194.16619      194.03162      1112.1914    
     41500  -140732.24      828.1483      -139904.09      194.15343      194.01742      1112.6521    
     41600  -140662.95      830.44692     -139832.5       194.14104      194.00351      1113.1129    
     41700  -140602.56      827.91314     -139774.65      194.12629      193.98802      1113.5736    
     41800  -140549.69      827.28579     -139722.41      194.1133       193.97383      1114.0343    
     41900  -140483.3       820.28819     -139663.01      194.10143      193.96092      1114.495     
     42000  -140422.24      822.79942     -139599.44      194.08719      193.94613      1114.9558    
     42100  -140362.01      829.11989     -139532.89      194.07315      193.9315       1115.4165    
     42200  -140285.26      825.08387     -139460.18      194.0614       193.91907      1115.8772    
     42300  -140231.89      839.33761     -139392.55      194.04732      193.90495      1116.3379    
     42400  -140171.98      830.93023     -139341.04      194.03268      193.89062      1116.7987    
     42500  -140113.73      829.75475     -139283.98      194.02008      193.87782      1117.2594    
     42600  -140054.19      827.85543     -139226.33      194.00593      193.86422      1117.7201    
     42700  -139992.28      826.82165     -139165.46      193.99082      193.84969      1118.1808    
     42800  -139922.92      824.60003     -139098.32      193.97855      193.83757      1118.6416    
     42900  -139855.02      827.61241     -139027.41      193.96452      193.82449      1119.1023    
     43000  -139796.29      830.71127     -138965.58      193.94889      193.81035      1119.563     
     43100  -139738.98      823.75101     -138915.23      193.93576      193.79762      1120.0237    
     43200  -139677.43      821.31062     -138856.12      193.92257      193.7854       1120.4845    
     43300  -139613.69      824.27347     -138789.42      193.90648      193.77148      1120.9452    
     43400  -139549.12      827.84822     -138721.27      193.89285      193.75889      1121.4059    
     43500  -139482.66      826.84967     -138655.81      193.87991      193.74694      1121.8666    
     43600  -139425.92      829.99531     -138595.93      193.86459      193.73367      1122.3274    
     43700  -139371.76      827.39038     -138544.37      193.85017      193.72096      1122.7881    
     43800  -139303.98      821.32726     -138482.65      193.83755      193.70897      1123.2488    
     43900  -139236.86      824.4271      -138412.44      193.82344      193.69625      1123.7095    
     44000  -139168.31      824.84608     -138343.46      193.80899      193.68382      1124.1703    
     44100  -139107.03      824.8607      -138282.17      193.79626      193.67179      1124.631     
     44200  -139055         820.09176     -138234.9       193.78211      193.65871      1125.0917    
     44300  -138991.81      817.95945     -138173.85      193.7677       193.64637      1125.5524    
     44400  -138917.76      817.31531     -138100.44      193.75463      193.63479      1126.0132    
     44500  -138860.14      829.75951     -138030.38      193.7412       193.62192      1126.4739    
     44600  -138792.42      827.28579     -137965.13      193.72707      193.60943      1126.9346    
     44700  -138733.12      825.64108     -137907.48      193.71399      193.59771      1127.3953    
     44800  -138680.86      826.78789     -137854.07      193.70067      193.58516      1127.8561    
     44900  -138611.89      820.84399     -137791.05      193.68711      193.57232      1128.3168    
     45000  -138547.49      823.88001     -137723.61      193.67425      193.56101      1128.7775    
     45100  -138488.62      830.1598      -137658.46      193.66167      193.54835      1129.2382    
     45200  -138423.24      829.39609     -137593.85      193.64749      193.53471      1129.699     
     45300  -138358.17      830.84887     -137527.32      193.63432      193.52246      1130.1597    
     45400  -138282.82      825.9423      -137456.88      193.62264      193.51078      1130.6204    
     45500  -138222.7       835.5171      -137387.18      193.60956      193.49719      1131.0811    
     45600  -138165.27      831.07634     -137334.19      193.59677      193.48461      1131.5419    
     45700  -138101.86      824.20924     -137277.65      193.58503      193.47266      1132.0026    
     45800  -138038.93      822.49206     -137216.44      193.57255      193.45916      1132.4633    
     45900  -137970.92      818.84498     -137152.08      193.55983      193.4459       1132.924     
     46000  -137903.8       822.41194     -137081.39      193.54791      193.43341      1133.3848    
     46100  -137844.31      832.9874      -137011.32      193.53673      193.42077      1133.8455    
     46200  -137781.9       827.30247     -136954.6       193.52444      193.40724      1134.3062    
     46300  -137719.79      819.63295     -136900.16      193.5125       193.39396      1134.767     
     46400  -137652.74      817.55558     -136835.18      193.50153      193.38176      1135.2277    
     46500  -137595.54      829.44041     -136766.1       193.48999      193.36829      1135.6884    
     46600  -137528.49      831.92489     -136696.57      193.47792      193.35446      1136.1491    
     46700  -137455.58      826.76598     -136628.81      193.4671       193.34235      1136.6099    
     46800  -137403.22      831.33573     -136571.89      193.45627      193.32931      1137.0706    
     46900  -137339.42      822.77992     -136516.64      193.44384      193.315        1137.5313    
     47000  -137277.48      824.88593     -136452.59      193.43179      193.30162      1137.992     
     47100  -137214.12      830.80641     -136383.31      193.42143      193.2893       1138.4528    
     47200  -137138.72      827.12477     -136311.6       193.40943      193.27518      1138.9135    
     47300  -137078.16      834.38329     -136243.77      193.39655      193.26126      1139.3742    
     47400  -137012.48      820.72034     -136191.76      193.38557      193.24839      1139.8349    
     47500  -136954.3       820.132       -136134.17      193.37421      193.23509      1140.2957    
     47600  -136897.83      826.63933     -136071.19      193.36143      193.22119      1140.7564    
     47700  -136829.09      826.75819     -136002.33      193.34909      193.20804      1141.2171    
     47800  -136754.63      823.69768     -135930.93      193.33869      193.19581      1141.6778    
     47900  -136694.53      832.63366     -135861.9       193.32533      193.18172      1142.1386    
     48000  -136632.38      825.02977     -135807.35      193.31232      193.16801      1142.5993    
     48100  -136573.84      823.47693     -135750.36      193.3017       193.1564       1143.06      
     48200  -136511.82      825.97097     -135685.85      193.28906      193.14294      1143.5207    
     48300  -136443.5       827.20254     -135616.3       193.27548      193.12903      1143.9815    
     48400  -136371.93      828.04135     -135543.89      193.2641       193.11705      1144.4422    
     48500  -136306.27      831.02886     -135475.24      193.2515       193.10414      1144.9029    
     48600  -136250.37      827.67429     -135422.7       193.23812      193.09054      1145.3636    
     48700  -136189.88      826.02398     -135363.85      193.22632      193.07882      1145.8244    
     48800  -136120.44      821.17141     -135299.27      193.21297      193.06567      1146.2851    
     48900  -136053.86      821.92059     -135231.93      193.19907      193.05192      1146.7458    
     49000  -135994.87      834.30961     -135160.56      193.18703      193.04038      1147.2065    
     49100  -135924.19      832.55729     -135091.64      193.17346      193.02756      1147.6673    
     49200  -135856.48      821.77054     -135034.71      193.15875      193.01336      1148.128     
     49300  -135800.27      823.15222     -134977.12      193.14692      193.00271      1148.5887    
     49400  -135738.8       826.02618     -134912.78      193.13407      192.99085      1149.0494    
     49500  -135667.55      820.24708     -134847.3       193.1186       192.97661      1149.5102    
     49600  -135606.69      826.73039     -134779.96      193.10542      192.96494      1149.9709    
     49700  -135542.19      830.83125     -134711.36      193.09264      192.95374      1150.4316    
     49800  -135478.45      829.41651     -134649.04      193.07716      192.9401       1150.8923    
     49900  -135410.31      819.72174     -134590.59      193.06269      192.92744      1151.3531    
     50000  -135351.12      822.41427     -134528.7       193.04981      192.91605      1151.8138    
     50100  -135283.27      821.91115     -134461.36      193.03515      192.90321      1152.2745    
     50200  -135213.15      828.96783     -134384.18      193.02024      192.88985      1152.7352    
     50300  -135145.76      830.02235     -134315.73      193.00668      192.87796      1153.196     
     50400  -135084.37      824.52496     -134259.84      192.99258      192.86542      1153.6567    
     50500  -135025.61      826.62519     -134198.99      192.97761      192.85196      1154.1174    
     50600  -134960.02      823.67034     -134136.35      192.96338      192.83954      1154.5781    
     50700  -134895.06      820.22442     -134074.84      192.94961      192.82713      1155.0389    
     50800  -134838.48      824.93434     -134013.55      192.93414      192.81278      1155.4996    
     50900  -134774.18      822.17606     -133952         192.9198       192.7999       1155.9603    
     51000  -134708.36      822.43348     -133885.93      192.9064       192.7877       1156.4211    
     51100  -134631.95      821.25339     -133810.7       192.89135      192.7734       1156.8818    
     51200  -134566.04      828.57874     -133737.46      192.87753      192.76001      1157.3425    
     51300  -134501.82      827.18995     -133674.63      192.86465      192.74813      1157.8032    
     51400  -134447.5       830.79673     -133616.7       192.8496       192.73353      1158.264     
     51500  -134378.35      826.73398     -133551.62      192.83599      192.71981      1158.7247    
     51600  -134308.26      822.88342     -133485.38      192.82379      192.70799      1159.1854    
     51700  -134244.79      821.9703      -133422.82      192.80922      192.69348      1159.6461    
     51800  -134184.63      819.61492     -133365.02      192.79461      192.6784       1160.1069    
     51900  -134121.66      822.28341     -133299.38      192.78241      192.66606      1160.5676    
     52000  -134047.86      829.03885     -133218.82      192.76859      192.65204      1161.0283    
     52100  -133977.38      830.11844     -133147.27      192.754        192.6366       1161.489     
     52200  -133916.78      829.10943     -133087.67      192.74132      192.62326      1161.9498    
     52300  -133855.12      826.77532     -133028.34      192.72845      192.60991      1162.4105    
     52400  -133793.1       827.68765     -132965.41      192.71445      192.59498      1162.8712    
     52500  -133724.09      824.66309     -132899.43      192.70162      192.58115      1163.3319    
     52600  -133656.91      820.78625     -132836.13      192.68859      192.56751      1163.7927    
     52700  -133598.29      820.21479     -132778.07      192.67491      192.55279      1164.2534    
     52800  -133532.46      821.48181     -132710.98      192.66173      192.53845      1164.7141    
     52900  -133457.83      822.42419     -132635.4       192.64855      192.52443      1165.1748    
     53000  -133389.73      831.71265     -132558.02      192.6349       192.50945      1165.6356    
     53100  -133324.68      829.81818     -132494.87      192.62173      192.49482      1166.0963    
     53200  -133265.18      832.44955     -132432.73      192.60871      192.48097      1166.557     
     53300  -133196.23      824.17384     -132372.05      192.59563      192.46621      1167.0177    
     53400  -133140.84      828.52718     -132312.31      192.58319      192.45167      1167.4785    
     53500  -133080.31      832.4531      -132247.86      192.57047      192.43761      1167.9392    
     53600  -133007.23      826.74387     -132180.48      192.55692      192.4225       1168.3999    
     53700  -132936.28      824.51457     -132111.77      192.54418      192.4074       1168.8606    
     53800  -132870.1       827.86543     -132042.24      192.53181      192.39366      1169.3214    
     53900  -132802.86      824.83393     -131978.03      192.51823      192.37841      1169.7821    
     54000  -132737.22      819.6399      -131917.58      192.50515      192.36328      1170.2428    
     54100  -132669.04      817.55433     -131851.48      192.49232      192.34894      1170.7035    
     54200  -132607.3       826.26703     -131781.03      192.47852      192.33391      1171.1643    
     54300  -132532.54      828.58528     -131703.95      192.46499      192.31867      1171.625     
     54400  -132462.62      832.07495     -131630.54      192.45177      192.30401      1172.0857    
     54500  -132404.96      830.73772     -131574.22      192.43847      192.28965      1172.5464    
     54600  -132343.39      830.17798     -131513.22      192.42488      192.27467      1173.0072    
     54700  -132282.95      831.12387     -131451.82      192.41078      192.25988      1173.4679    
     54800  -132213.02      825.2114      -131387.8       192.39678      192.24526      1173.9286    
     54900  -132151.52      829.58018     -131321.94      192.38257      192.23058      1174.3893    
     55000  -132084.73      826.87989     -131257.85      192.36825      192.2159       1174.8501    
     55100  -132024.13      825.49355     -131198.64      192.35403      192.20113      1175.3108    
     55200  -131946.41      816.55803     -131129.86      192.34069      192.18761      1175.7715    
     55300  -131875.27      828.91039     -131046.36      192.32501      192.17228      1176.2322    
     55400  -131809.63      837.99457     -130971.64      192.31013      192.15723      1176.693     
     55500  -131739.65      829.29842     -130910.35      192.29657      192.1436       1177.1537    
     55600  -131680.35      831.1749      -130849.17      192.28164      192.12921      1177.6144    
     55700  -131611.87      825.94176     -130785.93      192.26643      192.11441      1178.0752    
     55800  -131542.16      821.09353     -130721.07      192.25253      192.10088      1178.5359    
     55900  -131485.19      829.6969      -130655.49      192.23735      192.0867       1178.9966    
     56000  -131412.47      822.81027     -130589.66      192.22089      192.07136      1179.4573    
     56100  -131350.16      826.76447     -130523.4       192.20714      192.05825      1179.9181    
     56200  -131287.55      820.96512     -130466.59      192.19233      192.04439      1180.3788    
     56300  -131216.64      821.83273     -130394.81      192.17515      192.02909      1180.8395    
     56400  -131141.08      824.40669     -130316.68      192.16016      192.01532      1181.3002    
     56500  -131081.8       837.53604     -130244.27      192.1452       192.00164      1181.761     
     56600  -131012.8       826.73662     -130186.07      192.12792      191.98609      1182.2217    
     56700  -130942.24      823.39347     -130118.85      192.11273      191.97293      1182.6824    
     56800  -130880.23      829.05923     -130051.17      192.09797      191.95981      1183.1431    
     56900  -130807.13      821.06337     -129986.07      192.08053      191.94385      1183.6039    
     57000  -130748.3       827.93466     -129920.37      192.06489      191.93053      1184.0646    
     57100  -130679.75      828.76759     -129850.98      192.0497       191.91734      1184.5253    
     57200  -130613.05      823.64072     -129789.41      192.03234      191.90103      1184.986     
     57300  -130543.48      820.00574     -129723.47      192.01655      191.8873       1185.4468    
     57400  -130472.39      824.55777     -129647.83      192.00099      191.87395      1185.9075    
     57500  -130405.07      831.05289     -129574.01      191.98306      191.85727      1186.3682    
     57600  -130340.68      830.33933     -129510.34      191.96701      191.84247      1186.8289    
     57700  -130266.64      820.17137     -129446.47      191.95241      191.82978      1187.2897    
     57800  -130203.21      825.35882     -129377.85      191.93454      191.81335      1187.7504    
     57900  -130136.46      826.00001     -129310.46      191.918        191.798        1188.2111    
     58000  -130074.27      829.72461     -129244.55      191.90422      191.78509      1188.6718    
     58100  -130000.6       825.26959     -129175.33      191.88688      191.76884      1189.1326    
     58200  -129933.07      829.3639      -129103.71      191.86995      191.75296      1189.5933    
     58300  -129867.83      832.77353     -129035.05      191.85606      191.73954      1190.054     
     58400  -129800.22      829.95759     -128970.26      191.83987      191.72373      1190.5147    
     58500  -129724.56      824.04544     -128900.52      191.82292      191.70697      1190.9755    
     58600  -129657.43      826.40805     -128831.03      191.8086       191.6928       1191.4362    
     58700  -129592.27      827.59783     -128764.68      191.79285      191.67722      1191.8969    
     58800  -129529.23      834.03066     -128695.2       191.77668      191.66036      1192.3576    
     58900  -129451.99      827.30297     -128624.68      191.76252      191.64561      1192.8184    
     59000  -129385.64      828.20999     -128557.43      191.74722      191.63         1193.2791    
     59100  -129320.1       831.42896     -128488.67      191.73137      191.61323      1193.7398    
     59200  -129246.97      828.52912     -128418.44      191.71731      191.59784      1194.2005    
     59300  -129176.53      826.3481      -128350.18      191.70208      191.58201      1194.6613    
     59400  -129103.92      822.69878     -128281.22      191.68618      191.5654       1195.122     
     59500  -129045.04      832.99966     -128212.05      191.67237      191.54994      1195.5827    
     59600  -128970.89      826.16863     -128144.72      191.65776      191.53385      1196.0434    
     59700  -128903.57      828.44178     -128075.13      191.64079      191.51622      1196.5042    
     59800  -128840.58      835.01728     -128005.56      191.62665      191.50063      1196.9649    
     59900  -128762.1       825.31933     -127936.78      191.61267      191.48453      1197.4256    
     60000  -128693.31      827.49212     -127865.82      191.59684      191.46717      1197.8863    
     60100  -128628.9       833.87666     -127795.03      191.58283      191.45171      1198.3471    
     60200  -128554.21      828.6737      -127725.54      191.56903      191.43578      1198.8078    
     60300  -128478.13      822.32768     -127655.8       191.55338      191.41816      1199.2685    
     60400  -128412.26      827.50195     -127584.76      191.53894      191.40235      1199.7293    
     60500  -128347.41      831.35593     -127516.06      191.52515      191.38699      1200.19      
     60600  -128275.36      829.72447     -127445.64      191.50943      191.36912      1200.6507    
     60700  -128204.02      829.6564      -127374.37      191.495        191.35293      1201.1114    
     60800  -128132.46      828.8995      -127303.56      191.4816       191.33814      1201.5722    
     60900  -128058.9       826.27823     -127232.62      191.46517      191.31994      1202.0329    
     61000  -127996.91      836.0604      -127160.85      191.45043      191.30331      1202.4936    
     61100  -127912.54      821.98277     -127090.56      191.43769      191.28939      1202.9543    
     61200  -127852.33      833.85984     -127018.47      191.42117      191.27155      1203.4151    
     61300  -127776.32      828.37972     -126947.94      191.40575      191.25468      1203.8758    
     61400  -127705.98      828.78594     -126877.2       191.39253      191.24054      1204.3365    
     61500  -127634.15      828.75008     -126805.4       191.37583      191.22294      1204.7972    
     61600  -127562.51      829.7293      -126732.79      191.36017      191.20605      1205.258     
     61700  -127488.98      827.85747     -126661.12      191.34684      191.19198      1205.7187    
     61800  -127420.52      831.14883     -126589.37      191.33035      191.17526      1206.1794    
     61900  -127340.42      823.39613     -126517.03      191.31362      191.1581       1206.6401    
     62000  -127273.84      829.67862     -126444.16      191.29969      191.14365      1207.1009    
     62100  -127200.59      829.00796     -126371.58      191.28336      191.12769      1207.5616    
     62200  -127136.58      838.26397     -126298.32      191.26642      191.11101      1208.0223    
     62300  -127058.17      833.04321     -126225.13      191.25219      191.09715      1208.483     
     62400  -126983.44      831.55408     -126151.88      191.23588      191.08144      1208.9438    
     62500  -126908.5       830.06782     -126078.43      191.21799      191.06459      1209.4045    
     62600  -126837.45      832.76718     -126004.69      191.20388      191.05122      1209.8652    
     62700  -126761.53      829.12996     -125932.4       191.18727      191.0356       1210.3259    
     62800  -126687.92      830.4281      -125857.49      191.16889      191.01862      1210.7867    
     62900  -126609.49      826.38733     -125783.1       191.15409      191.0051       1211.2474    
     63000  -126535.38      826.6491      -125708.73      191.13695      190.98962      1211.7081    
     63100  -126460.43      827.08485     -125633.34      191.11898      190.9737       1212.1688    
     63200  -126383.88      826.64589     -125557.23      191.10361      190.9599       1212.6296    
     63300  -126308.81      826.46166     -125482.35      191.08636      190.94405      1213.0903    
     63400  -126233.33      826.70844     -125406.62      191.06881      190.92857      1213.551     
     63500  -126159.36      828.25232     -125331.11      191.05293      190.91518      1214.0117    
     63600  -126086.21      829.85118     -125256.36      191.03583      190.89949      1214.4725    
     63700  -126004.75      824.81317     -125179.94      191.01805      190.88338      1214.9332    
     63800  -125937.09      833.9631      -125103.13      191.0023       190.86969      1215.3939    
     63900  -125860.67      834.73076     -125025.94      190.9846       190.85442      1215.8546    
     64000  -125773.79      826.55133     -124947.24      190.96674      190.83794      1216.3154    
     64100  -125696.33      826.3869      -124869.94      190.95133      190.82416      1216.7761    
     64200  -125633.37      840.72453     -124792.64      190.93328      190.80794      1217.2368    
     64300  -125547.08      831.63778     -124715.45      190.91516      190.79199      1217.6975    
     64400  -125472.48      835.43735     -124637.04      190.90024      190.77835      1218.1583    
     64500  -125385.63      826.73937     -124558.89      190.88196      190.76116      1218.619     
     64600  -125312.03      831.53803     -124480.49      190.86451      190.74495      1219.0797    
     64700  -125237.36      835.32539     -124402.03      190.8495       190.73155      1219.5404    
     64800  -125159.43      835.76757     -124323.67      190.83105      190.7141       1220.0012    
     64900  -125075.3       830.97476     -124244.33      190.81442      190.6981       1220.4619    
     65000  -124994.93      829.47411     -124165.46      190.80018      190.6843       1220.9226    
     65100  -124911.14      826.39438     -124084.74      190.78159      190.66638      1221.3833    
     65200  -124840.55      836.90545     -124003.65      190.76502      190.65034      1221.8441    
     65300  -124756.2       833.45477     -123922.74      190.7505       190.63569      1222.3048    
     65400  -124673.62      831.66568     -123841.95      190.73261      190.61742      1222.7655    
     65500  -124588.54      828.35339     -123760.19      190.71679      190.60145      1223.2263    
     65600  -124506.74      828.20892     -123678.53      190.70206      190.5865       1223.687     
     65700  -124428.14      831.2611      -123596.88      190.68442      190.56804      1224.1477    
     65800  -124344.15      830.59202     -123513.56      190.6695       190.55203      1224.6084    
     65900  -124266.68      835.33235     -123431.35      190.65422      190.53611      1225.0692    
     66000  -124178.13      829.38132     -123348.75      190.6373       190.51828      1225.5299    
     66100  -124095.5       829.47805     -123266.02      190.62222      190.50191      1225.9906    
     66200  -124017.34      835.88945     -123181.45      190.6071       190.48537      1226.4513    
     66300  -123924.14      828.19093     -123095.94      190.59039      190.46742      1226.9121    
     66400  -123837.59      826.88225     -123010.71      190.57546      190.45131      1227.3728    
     66500  -123756.17      831.3247      -122924.85      190.5604       190.43488      1227.8335    
     66600  -123666.68      826.1078      -122840.57      190.54397      190.41626      1228.2942    
     66700  -123589.09      832.87786     -122756.22      190.52911      190.39993      1228.755     
     66800  -123503.36      832.50866     -122670.85      190.5138       190.38352      1229.2157    
     66900  -123409.8       825.4927      -122584.31      190.49847      190.36617      1229.6764    
     67000  -123324.49      828.72161     -122495.77      190.48346      190.34877      1230.1371    
     67100  -123239.9       830.93421     -122408.97      190.46838      190.33204      1230.5979    
     67200  -123153.41      831.70883     -122321.7       190.45264      190.31511      1231.0586    
     67300  -123069.14      836.69954     -122232.44      190.43733      190.29785      1231.5193    
     67400  -122980.21      834.72313     -122145.49      190.42254      190.28083      1231.98      
     67500  -122888.95      832.51206     -122056.44      190.40688      190.26358      1232.4408    
     67600  -122799.82      832.16169     -121967.66      190.39178      190.24736      1232.9015    
     67700  -122715.39      836.10564     -121879.29      190.37608      190.23003      1233.3622    
     67800  -122617.82      828.84251     -121788.97      190.36082      190.21273      1233.8229    
     67900  -122528.27      827.55654     -121700.72      190.34529      190.19589      1234.2837    
     68000  -122438.43      827.16786     -121611.26      190.32899      190.17886      1234.7444    
     68100  -122355.88      836.40307     -121519.47      190.31325      190.16234      1235.2051    
     68200  -122258.6       831.04229     -121427.56      190.29785      190.14555      1235.6658    
     68300  -122171.1       834.90376     -121336.2       190.28182      190.12873      1236.1266    
     68400  -122075.39      831.40258     -121243.98      190.26575      190.11242      1236.5873    
     68500  -121982.48      831.17192     -121151.3       190.24982      190.09612      1237.048     
     68600  -121887.78      829.90355     -121057.88      190.23341      190.07916      1237.5087    
     68700  -121799.72      834.97164     -120964.74      190.21713      190.06258      1237.9695    
     68800  -121702.76      834.36818     -120868.39      190.20034      190.04604      1238.4302    
     68900  -121613.6       838.86632     -120774.73      190.18403      190.03012      1238.8909    
     69000  -121518.35      837.09181     -120681.26      190.16731      190.01351      1239.3516    
     69100  -121417.89      831.55499     -120586.33      190.15059      189.99696      1239.8124    
     69200  -121327.14      836.68877     -120490.46      190.13401      189.98087      1240.2731    
     69300  -121234.59      838.50118     -120396.09      190.11646      189.96448      1240.7338    
     69400  -121137.94      837.38685     -120300.56      190.10009      189.9488       1241.1945    
     69500  -121037.84      834.38484     -120203.45      190.08303      189.93231      1241.6553    
     69600  -120947.59      840.11804     -120107.47      190.06556      189.91605      1242.116     
     69700  -120850.15      840.50257     -120009.65      190.04893      189.901        1242.5767    
     69800  -120746.8       834.78246     -119912.01      190.03125      189.88465      1243.0374    
     69900  -120656.44      840.7697      -119815.67      190.0136       189.86814      1243.4982    
     70000  -120554.87      839.53971     -119715.33      189.99679      189.85301      1243.9589    
     70100  -120461.07      845.71246     -119615.36      189.97869      189.83677      1244.4196    
     70200  -120352.52      837.22467     -119515.29      189.96074      189.82025      1244.8804    
     70300  -120253.89      841.22436     -119412.67      189.94392      189.80489      1245.3411    
     70400  -120158.68      843.93717     -119314.74      189.92548      189.78823      1245.8018    
     70500  -120056.62      843.60422     -119213.02      189.90751      189.77211      1246.2625    
     70600  -119957.61      846.94831     -119110.66      189.89024      189.75639      1246.7233    
     70700  -119852.51      843.69429     -119008.81      189.87207      189.73986      1247.184     
     70800  -119742.07      836.97249     -118905.1       189.85401      189.72347      1247.6447    
     70900  -119644.95      842.11592     -118802.83      189.83648      189.70764      1248.1054    
     71000  -119548.03      846.36915     -118701.66      189.8184       189.69104      1248.5662    
     71100  -119443.78      844.01108     -118599.77      189.80036      189.67446      1249.0269    
     71200  -119344.26      849.35039     -118494.91      189.78314      189.65871      1249.4876    
     71300  -119239.53      847.30378     -118392.23      189.76475      189.64165      1249.9483    
     71400  -119137.64      851.61451     -118286.03      189.74647      189.62449      1250.4091    
     71500  -119029.25      851.57916     -118177.67      189.72959      189.60878      1250.8698    
     71600  -118931.85      856.83144     -118075.02      189.71133      189.59161      1251.3305    
     71700  -118826.5       860.9626      -117965.54      189.69292      189.57401      1251.7912    
     71800  -118709.31      851.75801     -117857.55      189.67628      189.55804      1252.252     
     71900  -118609.43      860.16152     -117749.27      189.658        189.5406       1252.7127    
     72000  -118506.1       860.12973     -117645.97      189.63976      189.52299      1253.1734    
     72100  -118389.63      852.61718     -117537.02      189.62291      189.5066       1253.6341    
     72200  -118282.41      855.3457      -117427.06      189.60478      189.48866      1254.0949    
     72300  -118179.47      861.56447     -117317.91      189.58646      189.47065      1254.5556    
     72400  -118074.1       865.89353     -117208.2       189.56989      189.45432      1255.0163    
     72500  -117970.18      871.59242     -117098.59      189.55176      189.43608      1255.477     
     72600  -117857.08      868.53263     -116988.55      189.53378      189.41778      1255.9378    
[...]
     81600  -149151.22      979.23022     -148171.99      189.68118      189.35348      1297.4031    
     81700  -149455.4       973.45527     -148481.94      189.70221      189.37187      1297.8638    
     81800  -149755.69      968.48875     -148787.2       189.72247      189.38967      1298.3245    
     81900  -150053.56      965.31013     -149088.25      189.7423       189.40723      1298.7852    
     82000  -150348.18      962.69047     -149385.49      189.76145      189.4243       1299.246     
     82100  -150639.25      959.96948     -149679.28      189.77998      189.44095      1299.7067    
     82200  -150925.22      955.42394     -149969.8       189.79811      189.45734      1300.1674    
     82300  -151208.76      951.52005     -150257.24      189.81568      189.47331      1300.6281    
     82400  -151491.84      950.0887      -150541.75      189.83283      189.48899      1301.0889    
     82500  -151771.21      947.77716     -150823.43      189.84955      189.50435      1301.5496    
     82600  -152045.65      943.26116     -151102.39      189.86582      189.51934      1302.0103    
     82700  -152320.74      942.01993     -151378.72      189.88176      189.53407      1302.471     
     82800  -152591.58      939.16836     -151652.41      189.89727      189.54844      1302.9318    
     82900  -152860.2       936.56468     -151923.63      189.91234      189.56241      1303.3925    
     83000  -153127.58      935.05568     -152192.53      189.9271       189.5761       1303.8532    
     83100  -153391.12      931.88976     -152459.23      189.94147      189.58943      1304.3139    
     83200  -153652.07      928.29808     -152723.77      189.95546      189.6024       1304.7747    
     83300  -153901.37      919.37572     -152981.99      189.96934      189.6153       1305.2354    
     83400  -154137.07      908.58245     -153228.49      189.98325      189.62824      1305.6961    
     83500  -154363.55      899.93594     -153463.61      189.99685      189.64088      1306.1568    
     83600  -154582.14      893.27396     -153688.86      190.01031      189.65338      1306.6176    
     83700  -154791.36      886.40995     -153904.95      190.02379      189.66592      1307.0783    
     83800  -154991.75      879.7379      -154112.01      190.03701      189.6782       1307.539     
     83900  -155182.97      872.95619     -154310.02      190.0502       189.69046      1307.9997    
     84000  -155365.76      866.88608     -154498.88      190.0634       189.70275      1308.4605    
     84100  -155539.39      860.91621     -154678.47      190.07642      189.71487      1308.9212    
     84200  -155704.02      855.37313     -154848.64      190.0895       189.72708      1309.3819    
     84300  -155859.28      850.08377     -155009.19      190.10264      189.73937      1309.8426    
     84400  -156004.65      844.77718     -155159.87      190.11572      189.75161      1310.3034    
     84500  -156140.46      840.05183     -155300.4       190.12895      189.76403      1310.7641    
     84600  -156266.09      835.64762     -155430.44      190.14226      189.77656      1311.2248    
     84700  -156381.11      831.52701     -155549.58      190.15561      189.78915      1311.6856    
     84800  -156485.17      827.84583     -155657.33      190.16921      189.80203      1312.1463    
     84900  -156577.85      824.73876     -155753.11      190.18298      189.81509      1312.607     
     85000  -156658.05      821.78929     -155836.26      190.19693      189.82835      1313.0677    
     85100  -156725.66      819.68378     -155905.97      190.21127      189.84199      1313.5285    
     85200  -156779.44      818.15397     -155961.29      190.22579      189.85575      1313.9892    
     85300  -156821.94      819.61677     -156002.32      190.23981      189.86918      1314.4499    
     85400  -156853.56      820.95568     -156032.6       190.25365      189.88261      1314.9106    
     85500  -156873.43      818.93801     -156054.49      190.26721      189.89592      1315.3714    
     85600  -156881.26      816.65127     -156064.61      190.28075      189.90927      1315.8321    
     85700  -156876.99      817.60045     -156059.39      190.29419      189.92269      1316.2928    
     85800  -156859.43      819.10698     -156040.32      190.30676      189.93531      1316.7535    
     85900  -156826.96      816.96859     -156009.99      190.31844      189.94696      1317.2143    
     86000  -156777.65      812.31491     -155965.33      190.33018      189.95861      1317.675     
     86100  -156710.59      810.0053      -155900.58      190.34119      189.96955      1318.1357    
     86200  -156623.39      807.90984     -155815.48      190.3518       189.98002      1318.5964    
     86300  -156515.47      802.35012     -155713.12      190.3627       189.99062      1319.0572    
     86400  -156386.14      792.4758      -155593.66      190.37273      190.00029      1319.5179    
     86500  -156237.97      782.11998     -155455.85      190.38306      190.01015      1319.9786    
     86600  -156075.13      773.15718     -155301.97      190.39293      190.01942      1320.4393    
     86700  -155898.68      762.02861     -155136.65      190.40227      190.02819      1320.9001    
     86800  -155746.96      782.69546     -154964.27      190.41144      190.03675      1321.3608    
     86900  -155661.33      852.31654     -154809.01      190.41127      190.03646      1321.8215    
     87000  -155596.14      863.93044     -154732.21      190.40329      190.02749      1322.2822    
     87100  -155593.09      852.31995     -154740.77      190.40449      190.02631      1322.743     
     87200  -155693.18      874.28922     -154818.89      190.41091      190.03387      1323.2037    
     87300  -155781.85      826.10338     -154955.74      190.403        190.02517      1323.6644    
     87400  -155871.66      807.31831     -155064.34      190.39942      190.02184      1324.1251    
     87500  -155934.85      802.56899     -155132.28      190.40643      190.03005      1324.5859    
     87600  -155964.44      809.61596     -155154.83      190.40789      190.03418      1325.0466    
     87700  -155928         795.94851     -155132.05      190.41106      190.03883      1325.5073    
     87800  -155898.54      838.52026     -155060.02      190.41517      190.04023      1325.968     
     87900  -155873.92      862.68919     -155011.23      190.42432      190.04364      1326.4288    
     88000  -155910.36      870.28646     -155040.08      190.44531      190.05862      1326.8895    
     88100  -155931.49      807.78239     -155123.71      190.46478      190.07378      1327.3502    
     88200  -155958.03      789.47494     -155168.56      190.48174      190.08354      1327.8109    
     88300  -155940.3       794.70969     -155145.59      190.50366      190.09537      1328.2717    
     88400  -155887.94      823.05689     -155064.88      190.52137      190.1037       1328.7324    
     88500  -155863.54      877.70095     -154985.84      190.5435       190.11484      1329.1931    
     88600  -155890.76      887.45881     -155003.3       190.56676      190.13726      1329.6538    
     88700  -155943.12      825.10721     -155118.01      190.57655      190.15704      1330.1146    
     88800  -155992.55      781.07836     -155211.47      190.59232      190.18158      1330.5753    
     88900  -156009.14      788.44657     -155220.7       190.60351      190.20533      1331.036     
     89000  -155991.81      828.37963     -155163.43      190.60541      190.22473      1331.4967    
     89100  -155967.96      862.06552     -155105.89      190.60598      190.24852      1331.9575    
     89200  -155950.28      838.40944     -155111.87      190.61062      190.26912      1332.4182    
     89300  -155948.49      802.89448     -155145.59      190.6124       190.28429      1332.8789    
     89400  -155938.06      801.49724     -155136.56      190.61657      190.30152      1333.3397    
     89500  -155926.62      840.73942     -155085.88      190.62523      190.31423      1333.8004    
     89600  -155895.96      838.63315     -155057.33      190.63484      190.32777      1334.2611    
     89700  -155877.22      819.59904     -155057.62      190.64786      190.34114      1334.7218    
     89800  -155880.21      822.80166     -155057.41      190.66294      190.35648      1335.1826    
     89900  -155881.99      830.31341     -155051.68      190.67878      190.37656      1335.6433    
     90000  -155875.39      821.74538     -155053.64      190.69177      190.39584      1336.104     
     90100  -155875.28      820.40277     -155054.88      190.70068      190.41724      1336.5647    
     90200  -155869.95      822.33134     -155047.62      190.7058       190.44128      1337.0255    
     90300  -155862.87      827.56059     -155035.31      190.7156       190.46302      1337.4862    
     90400  -155862.46      830.85252     -155031.61      190.72375      190.48062      1337.9469    
     90500  -155856.66      820.11546     -155036.55      190.73212      190.49783      1338.4076    
     90600  -155865.56      823.77111     -155041.79      190.74361      190.52098      1338.8684    
     90700  -155862.52      823.829       -155038.69      190.75638      190.55142      1339.3291    
     90800  -155860.22      829.42915     -155030.79      190.77257      190.58597      1339.7898    
     90900  -155854.86      825.89222     -155028.96      190.79249      190.61605      1340.2505    
     91000  -155857.37      828.14064     -155029.23      190.81278      190.64106      1340.7113    
     91100  -155862.06      831.59237     -155030.47      190.83193      190.66541      1341.172     
     91200  -155861.94      820.33271     -155041.61      190.8568       190.69536      1341.6327    
     91300  -155855.98      816.6892      -155039.29      190.87888      190.72207      1342.0934    
     91400  -155866.06      824.06496     -155042         190.90505      190.7518       1342.5542    
     91500  -155859.31      818.14705     -155041.17      190.93007      190.78708      1343.0149    
     91600  -155869.69      826.55809     -155043.13      190.94377      190.81532      1343.4756    
     91700  -155872.32      824.21647     -155048.1       190.96298      190.84757      1343.9363    
     91800  -155870.33      820.90679     -155049.43      190.97605      190.8725       1344.3971    
     91900  -155861.22      842.39783     -155018.82      190.98963      190.90159      1344.8578    
     92000  -155856.84      827.55479     -155029.28      191.00916      190.92906      1345.3185    
     92100  -155855.71      811.43993     -155044.27      191.02474      190.94837      1345.7792    
     92200  -155864.1       820.12576     -155043.98      191.04102      190.9688       1346.24      
     92300  -155859.37      831.85851     -155027.51      191.0533       190.99405      1346.7007    
     92400  -155845.74      830.41039     -155015.32      191.06372      191.01888      1347.1614    
     92500  -155853.58      837.49188     -155016.09      191.07323      191.04495      1347.6221    
     92600  -155852.91      823.03214     -155029.88      191.08427      191.0727       1348.0829    
     92700  -155855.27      816.40751     -155038.86      191.09514      191.09873      1348.5436    
     92800  -155840.32      811.76116     -155028.56      191.10769      191.12236      1349.0043    
     92900  -155839.74      830.56358     -155009.18      191.11875      191.14371      1349.465     
     93000  -155836.2       835.39438     -155000.81      191.12877      191.16366      1349.9258    
     93100  -155836.41      827.38763     -155009.03      191.14104      191.17975      1350.3865    
     93200  -155835         821.47571     -155013.52      191.15415      191.19559      1350.8472    
     93300  -155849.34      825.61961     -155023.73      191.17002      191.21579      1351.3079    
     93400  -155845.51      811.7488      -155033.76      191.18678      191.24144      1351.7687    
     93500  -155849.77      823.3143      -155026.45      191.2016       191.26575      1352.2294    
     93600  -155850.26      838.27077     -155011.99      191.22098      191.28819      1352.6901    
     93700  -155830.39      821.19357     -155009.2       191.24225      191.31162      1353.1508    
     93800  -155833.65      825.96681     -155007.68      191.25972      191.33018      1353.6116    
     93900  -155832.81      825.06883     -155007.74      191.27642      191.34615      1354.0723    
     94000  -155817.39      827.56563     -154989.82      191.29928      191.3675       1354.533     
     94100  -155821.05      821.24947     -154999.8       191.32216      191.38391      1354.9937    
     94200  -155824.36      817.34364     -155007.02      191.34086      191.40011      1355.4545    
     94300  -155829.28      823.88381     -155005.4       191.35837      191.41998      1355.9152    
     94400  -155827.53      831.98017     -154995.55      191.3769       191.44099      1356.3759    
     94500  -155823.68      834.52679     -154989.15      191.39627      191.46073      1356.8367    
     94600  -155832.2       837.47261     -154994.73      191.41625      191.48057      1357.2974    
     94700  -155829.16      827.15649     -155002.01      191.43675      191.50072      1357.7581    
     94800  -155829.09      821.81553     -155007.27      191.45555      191.51881      1358.2188    
     94900  -155816.63      819.91325     -154996.71      191.46922      191.53387      1358.6796    
     95000  -155807.81      831.02972     -154976.78      191.4875       191.55153      1359.1403    
     95100  -155806.27      838.10091     -154968.17      191.50935      191.56947      1359.601     
     95200  -155803.68      822.25147     -154981.43      191.53041      191.58885      1360.0617    
     95300  -155820.69      823.97672     -154996.71      191.54768      191.60681      1360.5225    
     95400  -155821.31      819.63102     -155001.67      191.567        191.62384      1360.9832    
     95500  -155812.58      816.62828     -154995.95      191.58632      191.64275      1361.4439    
     95600  -155811.2       826.26937     -154984.94      191.60373      191.66068      1361.9046    
     95700  -155797.01      830.05469     -154966.95      191.62125      191.67841      1362.3654    
     95800  -155802.77      827.64861     -154975.12      191.6381       191.69966      1362.8261    
     95900  -155805.58      816.69801     -154988.88      191.65556      191.71899      1363.2868    
     96000  -155809.19      819.23575     -154989.95      191.67692      191.7391       1363.7475    
     96100  -155793.58      814.8295      -154978.75      191.69928      191.75568      1364.2083    
     96200  -155806.11      839.29946     -154966.82      191.71825      191.77195      1364.669     
     96300  -155800.31      828.51541     -154971.79      191.73728      191.78966      1365.1297    
     96400  -155816.86      828.24687     -154988.62      191.75424      191.79995      1365.5904    
     96500  -155814.02      811.4377      -155002.58      191.76981      191.80937      1366.0512    
     96600  -155810.57      810.98612     -154999.58      191.78452      191.8229       1366.5119    
     96700  -155802.99      824.44621     -154978.54      191.79802      191.83177      1366.9726    
     96800  -155796.83      836.11794     -154960.71      191.816        191.84095      1367.4333    
     96900  -155802.85      836.79961     -154966.05      191.83267      191.85095      1367.8941    
     97000  -155810.58      818.90129     -154991.68      191.84884      191.86121      1368.3548    
     97100  -155824.44      817.09832     -155007.34      191.86383      191.87319      1368.8155    
     97200  -155815.45      815.61766     -154999.83      191.87994      191.88501      1369.2762    
     97300  -155810.78      835.71718     -154975.06      191.89595      191.89058      1369.737     
     97400  -155801.53      839.85439     -154961.68      191.91271      191.89799      1370.1977    
     97500  -155803.51      828.11865     -154975.39      191.93186      191.90274      1370.6584    
     97600  -155814.65      815.25736     -154999.4       191.95035      191.90567      1371.1191    
     97700  -155826.23      814.15976     -155012.07      191.97063      191.90885      1371.5799    
     97800  -155824.43      819.59986     -155004.83      191.9895       191.90848      1372.0406    
     97900  -155816.34      827.8102      -154988.53      192.01085      191.91321      1372.5013    
     98000  -155811.75      833.34499     -154978.4       192.03371      191.92132      1372.962     
     98100  -155812.73      827.28197     -154985.44      192.05757      191.93144      1373.4228    
     98200  -155822.92      823.2802      -154999.64      192.07744      191.93839      1373.8835    
     98300  -155824.04      816.75266     -155007.28      192.10569      191.94547      1374.3442    
     98400  -155814.81      814.42054     -155000.39      192.13279      191.95282      1374.8049    
     98500  -155811.6       826.33812     -154985.26      192.15579      191.95769      1375.2657    
     98600  -155811.14      831.82672     -154979.32      192.18351      191.96663      1375.7264    
     98700  -155819.6       829.59232     -154990         192.20844      191.9711       1376.1871    
     98800  -155830.84      821.01678     -155009.83      192.23273      191.97639      1376.6478    
     98900  -155835.47      815.01415     -155020.46      192.25739      191.98503      1377.1086    
     99000  -155834.54      820.69794     -155013.84      192.27697      191.98813      1377.5693    
     99100  -155817.03      821.03373     -154995.99      192.29678      191.99264      1378.03      
     99200  -155817.22      834.30503     -154982.91      192.31363      191.99705      1378.4908    
     99300  -155816.47      826.66213     -154989.8       192.32811      192.00058      1378.9515    
     99400  -155830.96      823.82857     -155007.13      192.3434       192.01068      1379.4122    
     99500  -155829.82      818.53889     -155011.28      192.3511       192.01782      1379.8729    
     99600  -155821.05      823.02952     -154998.02      192.35956      192.02729      1380.3337    
     99700  -155816.1       835.4984      -154980.6       192.37368      192.03925      1380.7944    
     99800  -155810.86      833.06788     -154977.79      192.37963      192.04893      1381.2551    
     99900  -155820.11      828.75433     -154991.36      192.38518      192.06253      1381.7158    
    100000  -155826.24      820.13749     -155006.11      192.39203      192.07745      1382.1766    
Loop time of 1585.34 on 32 procs for 100000 steps with 21280 atoms

Performance: 5.450 ns/day, 4.404 hours/ns, 63.078 timesteps/s, 1.342 Matom-step/s
96.3% CPU use with 32 MPI tasks x 1 OpenMP threads

MPI task timing breakdown:
Section |  min time  |  avg time  |  max time  |%varavg| %total
---------------------------------------------------------------
Pair    | 1007.8     | 1216.2     | 1432.5     | 344.9 | 76.72
Neigh   | 5.082      | 8.9498     | 12.17      |  78.2 |  0.56
Comm    | 59.439     | 157.39     | 269.68     | 505.7 |  9.93
Output  | 0.4264     | 0.53419    | 0.78692    |  10.6 |  0.03
Modify  | 65.85      | 197.84     | 377.63     | 905.9 | 12.48
Other   |            | 4.384      |            |       |  0.28

Nlocal:            665 ave        1900 max           0 min
Histogram: 8 0 3 3 13 1 1 1 0 2
Nghost:        1752.16 ave        2939 max           0 min
Histogram: 8 0 0 0 0 3 6 1 6 8
Neighs:              0 ave           0 max           0 min
Histogram: 32 0 0 0 0 0 0 0 0 0

Total # of neighbors = 0
Ave neighs/atom = 0
Neighbor list builds = 752
Dangerous builds = 0
Total wall time: 0:26:25
