LAMMPS (2 Aug 2023 - Update 3)
OMP_NUM_THREADS environment is not set. Defaulting to 1 thread. (src/comm.cpp:98)
  using 1 OpenMP thread(s) per MPI task

# 1------general---------------
units                             metal      #单位为lammps 中的metel 类型
dimension                    3          #模拟的维度 三维
boundary                    p p p      #周期边界条件
atom_style                  atomic   #原子类型自动
atom_modify              map array sort 100 2.0
neighbor                    3.0 bin
neigh_modify            every 1 delay 0 check yes
#2 -----global variable-------定义全局变量，方便统一修改；
variable temperature equal 300
variable tstep equal 0.001
variable pressure equal 0
variable thermalstep equal 100
variable dumpstep equal 1000
variable relaxtime equal 0
variable totaltime equal 200000
variable deformrate equal 5e-3
#3 -------model------------
#box tilt large
read_data     1.lmp
Reading data file ...
  orthogonal box = (-100 -100 -2.3312515) to (100 100 46.166171)
  4 by 4 by 1 MPI processor grid
  reading atoms ...
  1320 atoms
  read_data CPU = 0.006 seconds
replicate 1 1 19
Replication is creating a 1x1x19 = 19 times larger system...
  orthogonal box = (-100 -100 -2.3312515) to (100 100 919.11979)
  1 by 2 by 8 MPI processor grid
  25080 atoms
  replicate CPU = 0.003 seconds
write_data z.data
System init for write_data ...
WARNING: Communication cutoff is 0.0. No ghost atoms will be generated. Atoms may get lost. (src/comm_brick.cpp:210)
pair_style hybrid airebo 3.0 airebo 3.0 airebo 3.0 lj/cut 10
pair_coeff * * airebo 1 CH.airebo C NULL NULL
Reading airebo potential file CH.airebo with DATE: 2011-10-25
pair_coeff * * airebo 2 CH.airebo NULL C NULL
Reading airebo potential file CH.airebo with DATE: 2011-10-25
pair_coeff * * airebo 3 CH.airebo NULL NULL C
Reading airebo potential file CH.airebo with DATE: 2011-10-25
pair_coeff 1 2 lj/cut 0.00456 3.431
pair_coeff 1 3 lj/cut 0.00456 3.431
pair_coeff 2 3 lj/cut 0.00456 3.431

# 5------minimize -----------
min_style      sd
minimize       1.0e-4 1.0e-6 100 1000
Neighbor list info ...
  update: every = 1 steps, delay = 0 steps, check = yes
  max neighbors/atom: 2000, page size: 100000
  master list distance cutoff = 13.2
  ghost atom cutoff = 13.2
  binsize = 6.6, bins = 31 31 140
  6 neighbor lists, perpetual/occasional/extra = 6 0 0
  (1) pair airebo, perpetual, skip from (5)
      attributes: full, newton on, ghost
      pair build: skip/ghost
      stencil: none
      bin: none
  (2) pair airebo, perpetual, skip from (5)
      attributes: full, newton on, ghost
      pair build: skip/ghost
      stencil: none
      bin: none
  (3) pair airebo, perpetual, skip from (5)
      attributes: full, newton on, ghost
      pair build: skip/ghost
      stencil: none
      bin: none
  (4) pair lj/cut, perpetual, skip from (6)
      attributes: half, newton on, cut 13
      pair build: skip
      stencil: none
      bin: none
  (5) neighbor class addition, perpetual
      attributes: full, newton on, ghost
      pair build: full/bin/ghost
      stencil: full/ghost/bin/3d
      bin: standard
  (6) neighbor class addition, perpetual
      attributes: half, newton on, cut 13
      pair build: half/bin/atomonly/newton
      stencil: half/bin/3d
      bin: standard
Per MPI rank memory allocation (min/avg/max) = 15.28 | 15.47 | 15.65 Mbytes
   Step          Temp          E_pair         E_mol          TotEng         Press     
         0   0             -153286.2       0             -153286.2       5481.8219    
        30   0             -181327.13      0             -181327.13      34.778352    
Loop time of 1.41954 on 16 procs for 30 steps with 25080 atoms

98.6% CPU use with 16 MPI tasks x 1 OpenMP threads

Minimization stats:
  Stopping criterion = energy tolerance
  Energy initial, next-to-last, final = 
     -153286.195652926  -181315.557363074  -181327.129590228
  Force two-norm initial, final = 8574.2885 43.120213
  Force max component initial, final = 534.82797 1.9411106
  Final line search alpha, max atom move = 0.051917894 0.10077838
  Iterations, force evaluations = 30 54

MPI task timing breakdown:
Section |  min time  |  avg time  |  max time  |%varavg| %total
---------------------------------------------------------------
Pair    | 1.2941     | 1.3412     | 1.3747     |   2.3 | 94.48
Neigh   | 0          | 0          | 0          |   0.0 |  0.00
Comm    | 0.021079   | 0.055096   | 0.093531   |  10.6 |  3.88
Output  | 0          | 0          | 0          |   0.0 |  0.00
Modify  | 0          | 0          | 0          |   0.0 |  0.00
Other   |            | 0.02324    |            |       |  1.64

Nlocal:         1567.5 ave        1618 max        1517 min
Histogram: 8 0 0 0 0 0 0 0 0 8
Nghost:         2267.5 ave        2327 max        2210 min
Histogram: 4 4 0 0 0 0 0 0 4 4
Neighs:              0 ave           0 max           0 min
Histogram: 16 0 0 0 0 0 0 0 0 0

Total # of neighbors = 0
Ave neighs/atom = 0
Neighbor list builds = 0
Dangerous builds = 0
#6----define computes------
variable nums equal count(all) #计算原子数目
variable toval equal 16.0428*16.0428*lz #计算系统总体积，单层石墨烯厚度为0.335nm
variable vol equal ${toval} #体系的初始体积
variable vol equal 237155.172763143 
variable vatom equal v_vol/v_nums #单个原子体积
compute 1 all stress/atom NULL #计算体系中单原子应力
compute xalls all reduce sum c_1[1]
variable xstress equal (c_xalls)/(v_toval*10000)
compute yalls all reduce sum c_1[2]
variable ystress equal (c_yalls)/(v_toval*10000)
compute zalls all reduce sum c_1[3]
variable zstress equal (c_zalls)/(v_toval*10000)
#7---------relaxation-------------------------
timestep ${tstep}
timestep 0.001
velocity all create ${temperature} 231743 units box dist gaussian
velocity all create 300 231743 units box dist gaussian
dump   1 all atom 100 all-cy.lammpstrj
#fix    1 all npt temp 300 300  0.1 aniso 0 0 10 drag 1  #三个方向独立控压
fix  1 all npt temp ${temperature} ${temperature} 0.1 x ${pressure} ${pressure} 10 y ${pressure} ${pressure} 10
fix  1 all npt temp 300 ${temperature} 0.1 x ${pressure} ${pressure} 10 y ${pressure} ${pressure} 10
fix  1 all npt temp 300 300 0.1 x ${pressure} ${pressure} 10 y ${pressure} ${pressure} 10
fix  1 all npt temp 300 300 0.1 x 0 ${pressure} 10 y ${pressure} ${pressure} 10
fix  1 all npt temp 300 300 0.1 x 0 0 10 y ${pressure} ${pressure} 10
fix  1 all npt temp 300 300 0.1 x 0 0 10 y 0 ${pressure} 10
fix  1 all npt temp 300 300 0.1 x 0 0 10 y 0 0 10
compute  2 all pe/atom
compute  pe all reduce sum c_2
variable PE equal "c_pe"
fix    pe all print 100 "${PE} " file PE.txt screen no
thermo  ${thermalstep}
thermo  100
#thermo_style  custom step pe ke etotal lx ly lz
run   ${relaxtime}
run   0
Per MPI rank memory allocation (min/avg/max) = 15.9 | 16.09 | 16.28 Mbytes
   Step          Temp          E_pair         E_mol          TotEng         Press          Volume    
        30   300           -181327.13      0             -180354.62      62.961075      36858041     
Loop time of 2.37656e-05 on 16 procs for 0 steps with 25080 atoms

96.5% CPU use with 16 MPI tasks x 1 OpenMP threads

MPI task timing breakdown:
Section |  min time  |  avg time  |  max time  |%varavg| %total
---------------------------------------------------------------
Pair    | 0          | 0          | 0          |   0.0 |  0.00
Neigh   | 0          | 0          | 0          |   0.0 |  0.00
Comm    | 0          | 0          | 0          |   0.0 |  0.00
Output  | 0          | 0          | 0          |   0.0 |  0.00
Modify  | 0          | 0          | 0          |   0.0 |  0.00
Other   |            | 2.377e-05  |            |       |100.00

Nlocal:         1567.5 ave        1573 max        1562 min
Histogram: 2 1 1 3 1 2 1 2 1 2
Nghost:        2268.12 ave        2277 max        2259 min
Histogram: 3 1 2 0 2 1 1 2 1 3
Neighs:              0 ave           0 max           0 min
Histogram: 16 0 0 0 0 0 0 0 0 0

Total # of neighbors = 0
Ave neighs/atom = 0
Neighbor list builds = 0
Dangerous builds = 0
#8 -------tension-----------------------------
unfix  1
undump  1
unfix  pe
reset_timestep 0
fix avestress all ave/atom 1 ${dumpstep} ${dumpstep} c_1[1] c_1[2] c_1[3] c_1[4] c_1[5] c_1[6]
fix avestress all ave/atom 1 1000 ${dumpstep} c_1[1] c_1[2] c_1[3] c_1[4] c_1[5] c_1[6]
fix avestress all ave/atom 1 1000 1000 c_1[1] c_1[2] c_1[3] c_1[4] c_1[5] c_1[6]

#-----calculation of strain and Cumulative compression--------
variable                tmp equal "lz"
variable                L0 equal ${tmp}
variable                L0 equal 921.451037
variable                strain equal "(lz - v_L0)/v_L0"
variable                Cumulativels equal "(lz - v_L0)/10"
fix Step all print 100 "${strain} ${Cumulativels} ${zstress}" file grapoten.txt screen no

dump 2 all custom ${dumpstep} tension.xyz type x y z f_avestress[1] f_avestress[2] f_avestress[3] f_avestress[4] f_avestress[5] f_avestress[6]
dump 2 all custom 1000 tension.xyz type x y z f_avestress[1] f_avestress[2] f_avestress[3] f_avestress[4] f_avestress[5] f_avestress[6]

fix  1 all npt temp ${temperature} ${temperature} 0.1 y ${pressure} ${pressure} 10 x ${pressure} ${pressure} 10
fix  1 all npt temp 300 ${temperature} 0.1 y ${pressure} ${pressure} 10 x ${pressure} ${pressure} 10
fix  1 all npt temp 300 300 0.1 y ${pressure} ${pressure} 10 x ${pressure} ${pressure} 10
fix  1 all npt temp 300 300 0.1 y 0 ${pressure} 10 x ${pressure} ${pressure} 10
fix  1 all npt temp 300 300 0.1 y 0 0 10 x ${pressure} ${pressure} 10
fix  1 all npt temp 300 300 0.1 y 0 0 10 x 0 ${pressure} 10
fix  1 all npt temp 300 300 0.1 y 0 0 10 x 0 0 10

thermo_style custom step pe ke etotal lx ly lz
fix   2 all deform 1 z erate ${deformrate} remap x units box
fix   2 all deform 1 z erate 0.005 remap x units box
fix   3 all ave/time 2 500 1000 v_xstress v_ystress v_zstress file pressure.out
run   ${totaltime}
run   200000
WARNING: Dump 2 includes no atom IDs and is not sorted by ID. This may complicate post-processing tasks or visualization (src/dump.cpp:221)
Per MPI rank memory allocation (min/avg/max) = 17.4 | 17.59 | 17.78 Mbytes
   Step         PotEng         KinEng         TotEng           Lx             Ly             Lz      
         0  -181327.13      972.51455     -180354.62      200            200            921.45104    
       100  -181324.5       1020.718      -180303.78      200.02938      199.93732      921.91176    
       200  -181212.47      864.05714     -180348.41      200.0368       199.8109       922.37249    
       300  -180995.82      704.34331     -180291.48      200.1483       199.74674      922.83321    
       400  -181077.59      856.3261      -180221.27      200.16957      199.66554      923.29394    
       500  -181178.27      974.46555     -180203.8       200.23637      199.69165      923.75466    
       600  -181079.46      851.66215     -180227.79      200.2138       199.73196      924.21539    
       700  -181197.71      1028.9818     -180168.72      200.18437      199.80075      924.67612    
       800  -181218.64      1014.4245     -180204.21      200.02201      199.82046      925.13684    
       900  -181170.88      932.12306     -180238.75      199.98071      199.8849       925.59757    
      1000  -181128.79      933.49258     -180195.3       199.95542      199.93083      926.05829    
      1100  -181043.15      906.09884     -180137.05      199.91657      199.94081      926.51902    
      1200  -181085.88      1006.6285     -180079.25      199.9478       199.97051      926.97974    
      1300  -181153.13      1050.6048     -180102.53      199.97356      199.93085      927.44047    
      1400  -181146.71      987.51178     -180159.2       199.99088      199.85553      927.90119    
      1500  -181180.01      982.77359     -180197.24      200.03186      199.78286      928.36192    
      1600  -181168.55      942.61145     -180225.93      200.10083      199.75169      928.82265    
      1700  -181096.67      906.96128     -180189.71      200.08472      199.75123      929.28337    
      1800  -181136.25      1009.4909     -180126.76      200.03925      199.78991      929.7441     
      1900  -181156.37      1014.672      -180141.7       199.99838      199.84759      930.20482    
      2000  -181114.8       938.7014      -180176.1       199.92871      199.87617      930.66555    
      2100  -181115.91      958.61841     -180157.29      199.92027      199.90848      931.12627    
      2200  -181074.98      958.61026     -180116.37      199.91005      199.90397      931.587      
      2300  -181050.1       977.50074     -180072.6       199.9207       199.88283      932.04772    
      2400  -181060.02      1005.4007     -180054.62      199.94651      199.85694      932.50845    
      2500  -181086.22      993.12116     -180093.1       199.97397      199.81739      932.96917    
      2600  -181088.43      961.15491     -180127.28      200.00393      199.77997      933.4299     
      2700  -181089.8       950.70158     -180139.1       200.02065      199.75153      933.89063    
      2800  -181064.2       947.35651     -180116.85      200.03106      199.74708      934.35135    
      2900  -181057.9       984.78709     -180073.11      200.00582      199.76064      934.81208    
      3000  -181050.67      992.01652     -180058.66      199.96644      199.79161      935.2728     
      3100  -181050.23      969.97455     -180080.25      199.93256      199.82224      935.73353    
      3200  -181050.66      961.53759     -180089.12      199.90828      199.83878      936.19425    
      3300  -181025.23      960.36762     -180064.86      199.90795      199.8426       936.65498    
      3400  -180997.04      968.41566     -180028.63      199.91252      199.82236      937.1157     
      3500  -180993.7       994.01458     -179999.69      199.93495      199.80099      937.57643    
      3600  -181000.13      994.93231     -180005.2       199.94705      199.77073      938.03716    
      3700  -181003.51      971.46095     -180032.04      199.9643       199.74725      938.49788    
      3800  -181001.52      960.02597     -180041.49      199.97569      199.73222      938.95861    
      3900  -180993.75      962.96925     -180030.78      199.97503      199.72836      939.41933    
      4000  -180979.49      975.96035     -180003.53      199.96224      199.73572      939.88006    
      4100  -180973.21      986.9147      -179986.3       199.93713      199.74837      940.34078    
      4200  -180956.08      969.97225     -179986.11      199.91459      199.76569      940.80151    
      4300  -180953.01      968.33414     -179984.67      199.89996      199.7742       941.26223    
      4400  -180929.93      958.09083     -179971.84      199.89893      199.77539      941.72296    
      4500  -180915.7       974.70862     -179940.99      199.89878      199.76215      942.18369    
      4600  -180900.73      986.45111     -179914.28      199.90838      199.74522      942.64441    
      4700  -180889.33      974.73583     -179914.6       199.91827      199.72533      943.10514    
      4800  -180892.93      970.02877     -179922.9       199.92464      199.70505      943.56586    
      4900  -180901.77      974.50017     -179927.27      199.93587      199.69511      944.02659    
      5000  -180883.37      966.00051     -179917.37      199.93206      199.68934      944.48731    
      5100  -180860.54      968.13195     -179892.41      199.92263      199.69289      944.94804    
      5200  -180848.07      979.64101     -179868.43      199.90622      199.69696      945.40876    
      5300  -180840.24      981.3657      -179858.87      199.89054      199.70238      945.86949    
      5400  -180836.6       977.14047     -179859.46      199.8798       199.70466      946.33021    
      5500  -180821.13      961.92866     -179859.2       199.87851      199.70264      946.79094    
      5600  -180797.02      954.84872     -179842.17      199.87822      199.6956       947.25167    
      5700  -180786.43      977.6644      -179808.76      199.87814      199.68331      947.71239    
      5800  -180773.47      984.81053     -179788.66      199.88113      199.67138      948.17312    
      5900  -180765.11      975.81725     -179789.29      199.87997      199.658        948.63384    
      6000  -180756.35      966.39866     -179789.95      199.88124      199.64961      949.09457    
      6100  -180745.53      965.42231     -179780.11      199.87927      199.64646      949.55529    
      6200  -180732.92      973.98335     -179758.94      199.86976      199.64487      950.01602    
      6300  -180709.98      973.58864     -179736.4       199.86113      199.64732      950.47674    
      6400  -180707.08      983.89072     -179723.19      199.84608      199.64449      950.93747    
      6500  -180691.56      968.71822     -179722.84      199.8405       199.64282      951.3982     
      6600  -180684.24      967.78753     -179716.45      199.83537      199.63798      951.85892    
      6700  -180669.76      972.07629     -179697.69      199.83215      199.63214      952.31965    
      6800  -180645.98      974.92191     -179671.06      199.8306       199.62647      952.78037    
      6900  -180627.81      981.25119     -179646.56      199.82458      199.61718      953.2411     
      7000  -180607.85      975.04394     -179632.8       199.82221      199.60944      953.70182    
      7100  -180605.63      974.96593     -179630.66      199.81745      199.59987      954.16255    
      7200  -180590.28      968.47437     -179621.8       199.81668      199.59349      954.62327    
      7300  -180577.9       969.46041     -179608.44      199.81155      199.58614      955.084      
      7400  -180562.61      971.90759     -179590.71      199.80723      199.58165      955.54473    
      7500  -180543.18      973.56965     -179569.61      199.80021      199.57614      956.00545    
      7600  -180534.39      979.32498     -179555.07      199.79132      199.56846      956.46618    
      7700  -180513.65      967.4386      -179546.21      199.78863      199.56483      956.9269     
      7800  -180500.45      973.97416     -179526.47      199.77867      199.55801      957.38763    
      7900  -180469.5       973.04849     -179496.45      199.77321      199.55604      957.84835    
      8000  -180456.13      977.52386     -179478.61      199.76434      199.55055      958.30908    
      8100  -180444.63      978.58188     -179466.04      199.7581       199.54452      958.7698     
      8200  -180437.44      978.02855     -179459.41      199.75371      199.5365       959.23053    
      8300  -180421.48      974.28976     -179447.19      199.75         199.52632      959.69126    
      8400  -180394.28      968.72835     -179425.55      199.74822      199.51662      960.15198    
      8500  -180380.88      979.56093     -179401.32      199.74279      199.50605      960.61271    
      8600  -180359.65      974.66269     -179384.99      199.73912      199.49834      961.07343    
      8700  -180349.64      969.22508     -179380.41      199.73141      199.49031      961.53416    
      8800  -180333.7       968.62816     -179365.07      199.72508      199.48578      961.99488    
      8900  -180301.3       962.13777     -179339.16      199.71559      199.48218      962.45561    
      9000  -180282.87      971.162       -179311.71      199.70165      199.4775       962.91633    
      9100  -180267.31      973.96417     -179293.34      199.69363      199.4749       963.37706    
      9200  -180254.74      973.22487     -179281.52      199.68391      199.4676       963.83778    
      9300  -180234.2       966.77977     -179267.42      199.68058      199.46135      964.29851    
      9400  -180215.08      979.62043     -179235.46      199.67546      199.45025      964.75924    
      9500  -180181.72      972.10968     -179209.61      199.67054      199.43946      965.21996    
      9600  -180162         972.63441     -179189.37      199.66393      199.42816      965.68069    
      9700  -180162.95      980.82054     -179182.13      199.65795      199.41895      966.14141    
      9800  -180140.76      970.64552     -179170.11      199.65157      199.41141      966.60214    
      9900  -180124.39      973.92642     -179150.46      199.64485      199.40417      967.06286    
     10000  -180092.71      967.87645     -179124.83      199.63836      199.39854      967.52359    
     10100  -180069.27      973.67486     -179095.59      199.62446      199.39032      967.98431    
     10200  -180045.11      975.68745     -179069.43      199.61511      199.38538      968.44504    
     10300  -180031.14      975.82165     -179055.31      199.6038       199.37828      968.90577    
     10400  -180017.9       969.92477     -179047.97      199.59591      199.37075      969.36649    
     10500  -179990.14      965.2413      -179024.9       199.59123      199.3639       969.82722    
     10600  -179971.48      975.66737     -178995.82      199.58219      199.35284      970.28794    
     10700  -179939.7       969.11313     -178970.59      199.57767      199.3428       970.74867    
     10800  -179933.49      982.42014     -178951.07      199.56919      199.32965      971.20939    
     10900  -179911.47      968.83618     -178942.63      199.56414      199.31874      971.67012    
     11000  -179894.81      971.56802     -178923.24      199.55722      199.30902      972.13084    
     11100  -179869.35      973.95387     -178895.4       199.54797      199.30147      972.59157    
     11200  -179841.03      975.28983     -178865.74      199.53691      199.29523      973.0523     
     11300  -179823.46      982.97002     -178840.49      199.52263      199.28937      973.51302    
     11400  -179790.7       971.07912     -178819.62      199.50952      199.28545      973.97375    
     11500  -179767.9       969.57986     -178798.32      199.49525      199.27908      974.43447    
     11600  -179741.11      966.85021     -178774.26      199.4841       199.27401      974.8952     
     11700  -179724.08      978.98122     -178745.1       199.47336      199.2655       975.35592    
     11800  -179693.11      976.44687     -178716.66      199.46489      199.25593      975.81665    
     11900  -179669.93      969.18094     -178700.74      199.45764      199.24396      976.27737    
     12000  -179656.96      970.23588     -178686.73      199.45121      199.22963      976.7381     
     12100  -179639.09      973.91696     -178665.18      199.44624      199.2169       977.19882    
     12200  -179604.97      966.26906     -178638.7       199.43652      199.20387      977.65955    
     12300  -179583.01      981.11613     -178601.89      199.42588      199.19609      978.12028    
     12400  -179552.32      978.76436     -178573.56      199.4107       199.1897       978.581      
     12500  -179534.62      979.02801     -178555.59      199.39594      199.18571      979.04173    
     12600  -179510.23      972.08864     -178538.14      199.38248      199.18063      979.50245    
     12700  -179493.41      976.39662     -178517.01      199.36933      199.17155      979.96318    
     12800  -179466.75      976.31827     -178490.43      199.3588       199.16097      980.4239     
     12900  -179432.41      976.4081      -178456         199.34917      199.14737      980.88463    
     13000  -179402.06      980.83174     -178421.23      199.3427       199.13416      981.34535    
     13100  -179380.23      977.00387     -178403.22      199.33549      199.11813      981.80608    
     13200  -179364.44      979.25184     -178385.18      199.33055      199.10443      982.26681    
     13300  -179331.32      965.68501     -178365.63      199.32192      199.09098      982.72753    
     13400  -179309.87      969.16247     -178340.71      199.31011      199.0799       983.18826    
     13500  -179283.33      975.3288      -178308         199.29559      199.07195      983.64898    
     13600  -179254.8       982.00937     -178272.79      199.27836      199.06451      984.10971    
     13700  -179220.66      969.72641     -178250.93      199.26529      199.05885      984.57043    
     13800  -179207.9       970.03974     -178237.86      199.25072      199.04991      985.03116    
     13900  -179178.18      966.46166     -178211.71      199.23887      199.04081      985.49188    
     14000  -179149.34      970.13038     -178179.21      199.22715      199.02933      985.95261    
     14100  -179121.76      975.63947     -178146.12      199.21584      199.01622      986.41334    
     14200  -179098.58      979.87426     -178118.7       199.20595      199.00253      986.87406    
     14300  -179072.32      966.14551     -178106.17      199.19637      198.98797      987.33479    
     14400  -179041.31      962.23082     -178079.08      199.18696      198.97462      987.79551    
     14500  -179015.58      972.85238     -178042.73      199.17557      198.96216      988.25624    
     14600  -178989.96      978.36602     -178011.59      199.16276      198.95347      988.71696    
     14700  -178959.58      974.62971     -177984.95      199.14606      198.9452       989.17769    
     14800  -178941.72      981.24621     -177960.47      199.13007      198.93778      989.63841    
     14900  -178906.77      963.57325     -177943.2       199.11377      198.9289       990.09914    
     15000  -178879.45      965.12816     -177914.32      199.09913      198.9178       990.55986    
     15100  -178845.97      971.63559     -177874.34      199.08845      198.90626      991.02059    
     15200  -178814.37      972.69778     -177841.68      199.07668      198.89191      991.48132    
     15300  -178787.46      973.2667      -177814.19      199.06714      198.87776      991.94204    
     15400  -178761.06      970.8472      -177790.21      199.05662      198.86293      992.40277    
     15500  -178742.05      969.73009     -177772.32      199.04453      198.84804      992.86349    
     15600  -178707.53      962.15449     -177745.37      199.03491      198.83551      993.32422    
     15700  -178663.93      962.64786     -177701.28      199.02129      198.82198      993.78494    
     15800  -178642.39      974.05083     -177668.34      199.00807      198.8105       994.24567    
     15900  -178604.95      966.66269     -177638.29      198.99185      198.79939      994.70639    
     16000  -178578.48      972.30959     -177606.17      198.97544      198.78897      995.16712    
     16100  -178544.59      974.86927     -177569.72      198.9608       198.77983      995.62785    
     16200  -178520.19      982.87732     -177537.31      198.94493      198.76857      996.08857    
     16300  -178493.85      975.15949     -177518.69      198.93181      198.75662      996.5493     
     16400  -178464.36      969.05225     -177495.3       198.91882      198.74174      997.01002    
     16500  -178433.73      971.27051     -177462.46      198.90772      198.7262       997.47075    
     16600  -178398.04      974.67141     -177423.37      198.89659      198.70999      997.93147    
     16700  -178366.69      976.60482     -177390.08      198.88533      198.69546      998.3922     
     16800  -178334.3       972.73555     -177361.57      198.87076      198.68143      998.85292    
     16900  -178306.36      975.45391     -177330.9       198.85459      198.67011      999.31365    
     17000  -178270.08      971.32213     -177298.75      198.83723      198.6611       999.77438    
     17100  -178233.16      975.92284     -177257.24      198.81617      198.65103      1000.2351    
     17200  -178203.41      984.41538     -177219         198.79964      198.64389      1000.6958    
     17300  -178173.04      978.04288     -177195         198.77974      198.63392      1001.1566    
     17400  -178143.34      973.02727     -177170.31      198.7626       198.62358      1001.6173    
     17500  -178107.89      968.15575     -177139.74      198.74887      198.61173      1002.078     
     17600  -178080.27      973.33607     -177106.93      198.73287      198.59581      1002.5387    
     17700  -178054.45      982.69365     -177071.76      198.72125      198.57987      1002.9995    
     17800  -178011.75      977.45748     -177034.29      198.71017      198.56206      1003.4602    
     17900  -177984.25      980.84635     -177003.4       198.69852      198.54428      1003.9209    
     18000  -177944.96      963.81168     -176981.15      198.68753      198.52921      1004.3816    
     18100  -177918.07      966.37764     -176951.7       198.67156      198.51477      1004.8424    
     18200  -177882.87      971.27261     -176911.59      198.65427      198.50359      1005.3031    
     18300  -177842.22      969.70724     -176872.51      198.63473      198.49414      1005.7638    
     18400  -177809.24      970.14738     -176839.1       198.61406      198.48549      1006.2245    
     18500  -177782.78      974.91203     -176807.86      198.59396      198.47598      1006.6853    
     18600  -177748.88      968.91315     -176779.96      198.57531      198.46555      1007.146     
     18700  -177718.02      965.96611     -176752.05      198.55754      198.4536       1007.6067    
     18800  -177683.59      969.33197     -176714.26      198.54119      198.44026      1008.0674    
     18900  -177646.1       977.55445     -176668.54      198.52792      198.42565      1008.5282    
     19000  -177605.75      972.18067     -176633.57      198.51572      198.40843      1008.9889    
     19100  -177582.42      976.44808     -176605.97      198.504        198.38973      1009.4496    
     19200  -177547.43      968.44625     -176578.98      198.49137      198.37106      1009.9103    
     19300  -177511.5       964.26539     -176547.24      198.47849      198.3546       1010.3711    
     19400  -177474.2       973.21994     -176500.98      198.46217      198.33962      1010.8318    
     19500  -177432.6       974.93697     -176457.66      198.44481      198.3282       1011.2925    
     19600  -177398.96      972.40481     -176426.56      198.42468      198.31847      1011.7532    
     19700  -177364.87      965.8175      -176399.05      198.40309      198.30892      1012.214     
     19800  -177325.96      961.33615     -176364.63      198.38414      198.29986      1012.6747    
     19900  -177291.51      972.77077     -176318.74      198.3637       198.28711      1013.1354    
     20000  -177256.41      978.92667     -176277.48      198.34843      198.2747       1013.5961    
     20100  -177221.79      974.76547     -176247.03      198.3336       198.25928      1014.0569    
     20200  -177189.85      974.22516     -176215.63      198.31959      198.24258      1014.5176    
     20300  -177149.76      969.57431     -176180.19      198.30689      198.22563      1014.9783    
     20400  -177118.51      975.02609     -176143.48      198.29272      198.20813      1015.439     
     20500  -177081.59      973.65056     -176107.94      198.27963      198.19222      1015.8998    
     20600  -177039.73      969.24803     -176070.48      198.26421      198.17604      1016.3605    
     20700  -177008.85      975.35871     -176033.49      198.24875      198.16218      1016.8212    
     20800  -176962.8       966.88057     -175995.92      198.23115      198.14877      1017.2819    
     20900  -176929.34      972.34295     -175957         198.21271      198.13774      1017.7427    
     21000  -176888.5       970.26982     -175918.23      198.1928       198.1263       1018.2034    
     21100  -176863.54      976.57592     -175886.96      198.17442      198.11543      1018.6641    
     21200  -176820.2       961.1446      -175859.05      198.15692      198.10205      1019.1248    
     21300  -176790.22      971.05788     -175819.16      198.14162      198.0868       1019.5856    
     21400  -176752.33      982.57151     -175769.76      198.12809      198.07081      1020.0463    
     21500  -176716.6       985.54458     -175731.05      198.11374      198.05334      1020.507     
     21600  -176668.35      969.5676      -175698.78      198.10007      198.03847      1020.9677    
     21700  -176638.61      972.34798     -175666.26      198.08423      198.02273      1021.4285    
     21800  -176596.77      967.34208     -175629.43      198.06859      198.00976      1021.8892    
     21900  -176558.86      974.3552      -175584.51      198.05068      197.99616      1022.3499    
     22000  -176515.62      976.90148     -175538.71      198.03327      197.98325      1022.8107    
     22100  -176475.73      971.96725     -175503.77      198.01592      197.97058      1023.2714    
     22200  -176450.77      973.71313     -175477.06      197.99729      197.95719      1023.7321    
     22300  -176406.69      965.72485     -175440.96      197.98067      197.94597      1024.1928    
     22400  -176374.66      975.66899     -175398.99      197.96163      197.93272      1024.6536    
     22500  -176322.43      968.86804     -175353.56      197.94591      197.92073      1025.1143    
     22600  -176289.37      979.27064     -175310.1       197.92925      197.90557      1025.575     
     22700  -176241.02      968.48501     -175272.54      197.91545      197.8903       1026.0357    
     22800  -176212.45      975.95351     -175236.5       197.90181      197.87405      1026.4965    
     22900  -176172.94      968.60844     -175204.33      197.88764      197.85737      1026.9572    
     23000  -176136.09      962.35849     -175173.73      197.87325      197.84247      1027.4179    
     23100  -176093.91      966.71654     -175127.19      197.85649      197.8284       1027.8786    
     23200  -176059.88      982.17255     -175077.71      197.83951      197.81672      1028.3394    
     23300  -176016.52      979.54886     -175036.97      197.82089      197.80412      1028.8001    
     23400  -175972.86      970.42558     -175002.44      197.80346      197.79282      1029.2608    
     23500  -175939.17      970.87884     -174968.29      197.78523      197.78013      1029.7215    
     23600  -175895.06      968.52533     -174926.54      197.76903      197.76787      1030.1823    
     23700  -175844.53      969.16234     -174875.37      197.75319      197.75477      1030.643     
     23800  -175809.59      978.86105     -174830.73      197.7372       197.73979      1031.1037    
     23900  -175765.49      971.28223     -174794.2       197.72399      197.72543      1031.5644    
     24000  -175731.72      965.63484     -174766.08      197.70915      197.70931      1032.0252    
     24100  -175696.11      965.89988     -174730.21      197.69555      197.69393      1032.4859    
     24200  -175649.53      964.59912     -174684.93      197.68134      197.67951      1032.9466    
     24300  -175612.62      973.89552     -174638.72      197.66532      197.66534      1033.4073    
     24400  -175566.25      972.02624     -174594.22      197.65014      197.65328      1033.8681    
     24500  -175520.35      969.91449     -174550.43      197.63325      197.64131      1034.3288    
     24600  -175476.39      972.9941      -174503.4       197.61648      197.63021      1034.7895    
     24700  -175443.49      986.23934     -174457.25      197.59909      197.61979      1035.2502    
     24800  -175398.01      973.32858     -174424.68      197.58134      197.60841      1035.711     
     24900  -175359.73      967.41627     -174392.31      197.56505      197.59605      1036.1717    
     25000  -175325.62      974.12124     -174351.5       197.54931      197.58234      1036.6324    
     25100  -175278.19      972.78255     -174305.41      197.53505      197.56801      1037.0931    
     25200  -175234.59      981.00329     -174253.59      197.52098      197.55377      1037.5539    
     25300  -175186.6       979.89908     -174206.7       197.50702      197.54027      1038.0146    
     25400  -175154.79      973.5357      -174181.25      197.49353      197.52753      1038.4753    
     25500  -175110.59      966.13898     -174144.45      197.47825      197.51454      1038.936     
     25600  -175069.21      971.53851     -174097.67      197.46308      197.50177      1039.3968    
     25700  -175026.16      978.08951     -174048.07      197.44702      197.48938      1039.8575    
     25800  -174986.62      981.4205      -174005.2       197.43073      197.47765      1040.3182    
     25900  -174943         972.19936     -173970.8       197.41423      197.46702      1040.7789    
     26000  -174906.8       967.24906     -173939.55      197.39691      197.45668      1041.2397    
     26100  -174858.68      964.14612     -173894.53      197.38108      197.44592      1041.7004    
     26200  -174808.25      964.68925     -173843.56      197.36644      197.4346       1042.1611    
     26300  -174777.34      979.90636     -173797.43      197.35188      197.42173      1042.6218    
     26400  -174729.34      978.2619      -173751.08      197.33769      197.40814      1043.0826    
     26500  -174678.19      974.20066     -173703.98      197.32327      197.39422      1043.5433    
     26600  -174638.42      978.2399      -173660.18      197.30989      197.38094      1044.004     
     26700  -174603.26      974.79805     -173628.46      197.29605      197.36817      1044.4648    
     26800  -174556.47      964.98273     -173591.48      197.28164      197.35473      1044.9255    
     26900  -174511.89      969.64585     -173542.25      197.26889      197.34247      1045.3862    
     27000  -174466.16      975.41762     -173490.74      197.25422      197.32983      1045.8469    
     27100  -174421.9       976.22244     -173445.68      197.23889      197.31817      1046.3077    
     27200  -174376.53      972.70114     -173403.83      197.22414      197.30706      1046.7684    
     27300  -174338.01      975.51351     -173362.5       197.20862      197.29496      1047.2291    
     27400  -174292.48      967.06997     -173325.41      197.19486      197.28355      1047.6898    
     27500  -174255.65      970.72477     -173284.92      197.18053      197.27042      1048.1506    
     27600  -174202.68      972.83944     -173229.84      197.16719      197.25823      1048.6113    
     27700  -174153.21      973.40922     -173179.8       197.1531       197.24555      1049.072     
     27800  -174109.6       971.99563     -173137.6       197.13956      197.23338      1049.5327    
     27900  -174070.47      970.07409     -173100.39      197.12652      197.2208       1049.9935    
     28000  -174033.44      969.47691     -173063.96      197.11378      197.20722      1050.4542    
     28100  -173985.1       966.39651     -173018.7       197.10135      197.19309      1050.9149    
     28200  -173936.53      976.75053     -172959.78      197.08986      197.1793       1051.3756    
     28300  -173886.08      975.92832     -172910.15      197.07748      197.16595      1051.8364    
     28400  -173841.55      976.04481     -172865.5       197.06332      197.15316      1052.2971    
     28500  -173795.14      967.39677     -172827.74      197.04986      197.14241      1052.7578    
     28600  -173759.43      969.01967     -172790.41      197.03419      197.13037      1053.2185    
     28700  -173712.47      968.09679     -172744.37      197.02034      197.12023      1053.6793    
     28800  -173656.84      972.71552     -172684.13      197.00526      197.10826      1054.14      
     28900  -173612.68      975.40269     -172637.28      196.99193      197.09721      1054.6007    
     29000  -173570.27      973.46357     -172596.8       196.97751      197.08526      1055.0614    
     29100  -173524.53      965.25583     -172559.27      196.96354      197.07322      1055.5222    
     29200  -173483.02      966.11611     -172516.9       196.95116      197.06214      1055.9829    
     29300  -173436.14      975.83314     -172460.31      196.93685      197.04933      1056.4436    
     29400  -173386.94      979.25149     -172407.68      196.92346      197.03742      1056.9043    
     29500  -173335.82      971.64103     -172364.18      196.91022      197.02561      1057.3651    
     29600  -173297.67      971.80592     -172325.86      196.89734      197.01334      1057.8258    
     29700  -173257         967.51246     -172289.49      196.88463      197.00073      1058.2865    
     29800  -173208.25      961.81112     -172246.44      196.87247      196.9885       1058.7472    
     29900  -173161.16      975.85577     -172185.3       196.85866      196.97557      1059.208     
     30000  -173110.55      976.92144     -172133.63      196.84689      196.96452      1059.6687    
     30100  -173061.21      975.32212     -172085.88      196.83293      196.95278      1060.1294    
     30200  -173013.89      972.68109     -172041.21      196.82007      196.94261      1060.5901    
     30300  -172966.21      963.81772     -172002.39      196.80662      196.93236      1061.0509    
     30400  -172928.48      964.70971     -171963.77      196.79154      196.9205       1061.5116    
     30500  -172881.06      968.62784     -171912.43      196.77838      196.90942      1061.9723    
     30600  -172829.02      975.39173     -171853.63      196.76361      196.89745      1062.433     
     30700  -172779.25      973.03038     -171806.22      196.74912      196.88679      1062.8938    
     30800  -172735.9       974.91129     -171760.99      196.73538      196.87642      1063.3545    
     30900  -172686.85      969.68031     -171717.17      196.72202      196.86621      1063.8152    
     31000  -172643.79      966.23194     -171677.56      196.70926      196.85512      1064.2759    
     31100  -172597.5       967.04194     -171630.46      196.69674      196.84308      1064.7367    
     31200  -172547.84      976.20515     -171571.63      196.68496      196.83141      1065.1974    
     31300  -172492.04      971.19903     -171520.84      196.67232      196.81825      1065.6581    
     31400  -172452.73      977.63996     -171475.09      196.65971      196.80595      1066.1188    
     31500  -172403.27      969.1924      -171434.08      196.64783      196.79423      1066.5796    
     31600  -172360.64      960.83069     -171399.81      196.63455      196.78166      1067.0403    
     31700  -172318.43      968.13125     -171350.3       196.62228      196.77038      1067.501     
     31800  -172258.66      965.2257      -171293.43      196.6082       196.75819      1067.9618    
     31900  -172210.04      969.80041     -171240.24      196.59543      196.74716      1068.4225    
     32000  -172157.2       971.88466     -171185.32      196.58285      196.73567      1068.8832    
     32100  -172108.56      973.89925     -171134.66      196.5708       196.72397      1069.3439    
     32200  -172067.92      973.57246     -171094.35      196.56011      196.71262      1069.8047    
     32300  -172028.24      970.05015     -171058.19      196.54799      196.69986      1070.2654    
     32400  -171972.79      965.65796     -171007.13      196.53574      196.68733      1070.7261    
     32500  -171921.4       970.55168     -170950.85      196.52315      196.67522      1071.1868    
     32600  -171873.3       975.43271     -170897.87      196.50929      196.66329      1071.6476    
     32700  -171821.08      972.46346     -170848.61      196.49611      196.65219      1072.1083    
     32800  -171783.69      977.40982     -170806.28      196.48402      196.64096      1072.569     
     32900  -171733.34      962.19582     -170771.14      196.47186      196.62881      1073.0297    
     33000  -171678.49      959.51769     -170718.97      196.46101      196.61683      1073.4905    
     33100  -171632.58      970.28305     -170662.29      196.44929      196.60453      1073.9512    
     33200  -171582.46      975.44994     -170607.01      196.43673      196.59204      1074.4119    
     33300  -171529.61      976.3695      -170553.24      196.42508      196.5806       1074.8726    
     33400  -171484.05      979.30042     -170504.75      196.41189      196.56872      1075.3334    
     33500  -171437.74      972.30074     -170465.44      196.39951      196.55712      1075.7941    
     33600  -171391.26      966.32019     -170424.93      196.38769      196.546        1076.2548    
     33700  -171340.02      969.66035     -170370.36      196.37515      196.53469      1076.7155    
     33800  -171289.26      975.73534     -170313.52      196.36327      196.52351      1077.1763    
     33900  -171234.11      971.47932     -170262.63      196.3507       196.51202      1077.637     
     34000  -171184.83      971.9484      -170212.88      196.33874      196.50012      1078.0977    
     34100  -171138.57      975.41209     -170163.16      196.32671      196.48796      1078.5584    
     34200  -171077.98      970.53911     -170107.44      196.31528      196.47631      1079.0192    
     34300  -171031.88      978.34047     -170053.54      196.30318      196.46466      1079.4799    
     34400  -170985.33      974.70174     -170010.63      196.28972      196.45401      1079.9406    
     34500  -170948.33      975.83076     -169972.5       196.27615      196.44399      1080.4013    
     34600  -170889.57      967.22727     -169922.34      196.2631       196.43423      1080.8621    
     34700  -170837.64      971.88492     -169865.75      196.25092      196.423        1081.3228    
     34800  -170786.45      974.86075     -169811.59      196.23919      196.41002      1081.7835    
     34900  -170738.55      976.23651     -169762.31      196.22961      196.39801      1082.2442    
     35000  -170685.14      971.94994     -169713.19      196.2188       196.38335      1082.705     
     35100  -170635.12      970.33327     -169664.79      196.20856      196.37042      1083.1657    
     35200  -170591.27      977.62998     -169613.64      196.19717      196.3584       1083.6264    
     35300  -170533.16      969.24141     -169563.92      196.18469      196.34712      1084.0871    
     35400  -170482.4       967.59823     -169514.81      196.17239      196.33617      1084.5479    
     35500  -170434.19      972.34767     -169461.84      196.1603       196.32481      1085.0086    
     35600  -170380.12      975.04507     -169405.07      196.14762      196.31346      1085.4693    
     35700  -170326.21      974.48985     -169351.72      196.13517      196.30259      1085.93      
     35800  -170280.33      968.3415      -169311.99      196.122        196.29121      1086.3908    
     35900  -170238.21      968.547       -169269.67      196.10953      196.2802       1086.8515    
     36000  -170183.4       968.56738     -169214.83      196.09683      196.26971      1087.3122    
     36100  -170134.6       976.99168     -169157.61      196.08344      196.25895      1087.7729    
     36200  -170077.8       971.48616     -169106.31      196.07027      196.24856      1088.2337    
     36300  -170030.15      973.11247     -169057.04      196.05764      196.23847      1088.6944    
     36400  -169976.11      968.46786     -169007.64      196.04517      196.22647      1089.1551    
     36500  -169930.92      973.43003     -168957.49      196.03418      196.21436      1089.6159    
     36600  -169873.55      970.29302     -168903.26      196.02391      196.20077      1090.0766    
     36700  -169831.72      983.13525     -168848.58      196.01367      196.18711      1090.5373    
     36800  -169774.21      976.1528      -168798.06      196.00289      196.17413      1090.998     
     36900  -169724.2       970.75433     -168753.45      195.9911       196.16205      1091.4588    
     37000  -169674.97      964.59838     -168710.37      195.97811      196.15116      1091.9195    
     37100  -169626.25      969.61104     -168656.63      195.9646       196.14098      1092.3802    
     37200  -169558.99      967.32539     -168591.67      195.95071      196.13059      1092.8409    
     37300  -169513.61      974.48892     -168539.12      195.9373       196.1202       1093.3017    
     37400  -169469.02      976.86129     -168492.16      195.92484      196.10943      1093.7624    
     37500  -169413         965.87782     -168447.13      195.912        196.09724      1094.2231    
     37600  -169366.34      970.00318     -168396.34      195.90037      196.08551      1094.6838    
     37700  -169306.85      973.0859      -168333.76      195.88876      196.07401      1095.1446    
     37800  -169250.75      973.25367     -168277.5       195.87604      196.06182      1095.6053    
     37900  -169207.4       977.02289     -168230.38      195.86518      196.05088      1096.066     
     38000  -169163.83      974.42291     -168189.41      195.85314      196.03799      1096.5267    
     38100  -169110.11      967.67963     -168142.43      195.84201      196.02517      1096.9875    
     38200  -169052.55      969.53529     -168083.02      195.83132      196.01218      1097.4482    
     38300  -169002.72      980.98802     -168021.73      195.81955      195.9984       1097.9089    
     38400  -168950.13      977.60005     -167972.53      195.80865      195.98624      1098.3696    
     38500  -168901.97      975.17138     -167926.8       195.79614      195.97384      1098.8304    
     38600  -168846.72      967.00683     -167879.72      195.78352      195.96282      1099.2911    
     38700  -168796.08      972.43991     -167823.64      195.77103      195.95243      1099.7518    
     38800  -168735.14      974.36123     -167760.77      195.75679      195.94146      1100.2125    
     38900  -168687.37      979.739       -167707.63      195.74341      195.93114      1100.6733    
     39000  -168630.95      971.33155     -167659.62      195.73061      195.92056      1101.134     
     39100  -168588.05      972.98346     -167615.06      195.71782      195.90831      1101.5947    
     39200  -168534.96      959.47546     -167575.48      195.70761      195.8965       1102.0554    
     39300  -168479.4       959.20354     -167520.2       195.69628      195.88241      1102.5162    
     39400  -168433.18      978.46139     -167454.72      195.68658      195.86928      1102.9769    
     39500  -168373.29      974.74078     -167398.55      195.67588      195.85579      1103.4376    
     39600  -168317.38      973.47253     -167343.91      195.66362      195.84301      1103.8983    
     39700  -168278.44      986.66994     -167291.77      195.65085      195.832        1104.3591    
     39800  -168207.69      964.74045     -167242.95      195.63671      195.82067      1104.8198    
     39900  -168164.88      966.64075     -167198.24      195.62327      195.8102       1105.2805    
     40000  -168115.37      968.60452     -167146.77      195.60982      195.7991       1105.7412    
     40100  -168057.92      976.61397     -167081.31      195.59667      195.78727      1106.202     
     40200  -168002.22      977.82292     -167024.4       195.5846       195.77567      1106.6627    
     40300  -167953.86      978.01751     -166975.84      195.57271      195.7648       1107.1234    
     40400  -167903.59      972.29036     -166931.3       195.55966      195.75294      1107.5841    
     40500  -167848.91      965.90038     -166883.01      195.54749      195.74179      1108.0449    
     40600  -167797.05      979.29283     -166817.76      195.53506      195.73016      1108.5056    
     40700  -167733.81      975.66232     -166758.15      195.52236      195.71765      1108.9663    
     40800  -167682.45      972.28138     -166710.16      195.5104       195.70517      1109.427     
     40900  -167635.53      969.59457     -166665.94      195.49805      195.69203      1109.8878    
     41000  -167584.32      968.50552     -166615.81      195.48582      195.68019      1110.3485    
     41100  -167524.74      972.52943     -166552.21      195.47283      195.66817      1110.8092    
     41200  -167468.8       976.39681     -166492.4       195.45956      195.65678      1111.27      
     41300  -167417.76      975.12362     -166442.64      195.44657      195.64611      1111.7307    
     41400  -167366.83      969.48198     -166397.35      195.43322      195.63476      1112.1914    
     41500  -167319.23      968.48702     -166350.75      195.42015      195.62362      1112.6521    
     41600  -167265.86      970.04094     -166295.82      195.40709      195.61272      1113.1129    
     41700  -167205.66      978.54068     -166227.11      195.3937       195.60216      1113.5736    
     41800  -167150.39      976.917       -166173.47      195.38001      195.59049      1114.0343    
     41900  -167101.6       973.82803     -166127.77      195.36733      195.57797      1114.495     
     42000  -167051.24      970.99174     -166080.24      195.35468      195.56432      1114.9558    
     42100  -166999.57      971.76916     -166027.8       195.3432       195.55193      1115.4165    
     42200  -166939.71      976.68579     -165963.03      195.33085      195.53931      1115.8772    
     42300  -166883.21      979.78043     -165903.43      195.31827      195.52761      1116.3379    
     42400  -166826.37      970.85416     -165855.51      195.3055       195.516        1116.7987    
     42500  -166783.18      972.25389     -165810.92      195.29236      195.50439      1117.2594    
     42600  -166722.27      962.12895     -165760.14      195.28031      195.49285      1117.7201    
     42700  -166679.38      974.707       -165704.67      195.26789      195.48046      1118.1808    
     42800  -166622.29      974.44303     -165647.85      195.2558       195.46838      1118.6416    
     42900  -166562.66      972.40108     -165590.26      195.24383      195.457        1119.1023    
     43000  -166509.68      976.73859     -165532.95      195.23038      195.44518      1119.563     
     43100  -166448.01      975.33489     -165472.68      195.21745      195.43367      1120.0237    
     43200  -166396.06      977.87014     -165418.19      195.2046       195.42186      1120.4845    
     43300  -166344.96      969.45521     -165375.5       195.19118      195.41025      1120.9452    
     43400  -166298         969.87199     -165328.13      195.17713      195.39856      1121.4059    
     43500  -166245.37      971.98036     -165273.39      195.16382      195.38712      1121.8666    
     43600  -166187.6       976.03051     -165211.57      195.15105      195.37561      1122.3274    
     43700  -166123.27      976.17945     -165147.09      195.13783      195.36406      1122.7881    
     43800  -166075.69      978.9995      -165096.69      195.12475      195.3531       1123.2488    
     43900  -166015.32      965.80929     -165049.51      195.11148      195.34152      1123.7095    
     44000  -165970.5       969.42193     -165001.08      195.09861      195.33056      1124.1703    
     44100  -165924.33      974.20759     -164950.12      195.08473      195.31887      1124.631     
     44200  -165868.65      969.81854     -164898.83      195.07171      195.3082       1125.0917    
     44300  -165813.07      967.19283     -164845.88      195.05832      195.29681      1125.5524    
     44400  -165757.71      972.35633     -164785.35      195.04525      195.28533      1126.0132    
     44500  -165700.44      976.69064     -164723.75      195.03167      195.27319      1126.4739    
     44600  -165647.39      977.48029     -164669.91      195.01836      195.26144      1126.9346    
     44700  -165596.11      969.26079     -164626.85      195.00552      195.25008      1127.3953    
     44800  -165544.71      966.93181     -164577.78      194.99174      195.2384       1127.8561    
     44900  -165488.46      969.74761     -164518.71      194.97826      195.22744      1128.3168    
     45000  -165430.14      971.60538     -164458.53      194.96508      195.21625      1128.7775    
     45100  -165379.53      976.05009     -164403.48      194.95141      195.20448      1129.2382    
     45200  -165325.57      973.65234     -164351.92      194.93862      195.1934       1129.699     
     45300  -165268.29      959.59577     -164308.7       194.92564      195.18114      1130.1597    
     45400  -165219.73      959.64887     -164260.08      194.91301      195.16923      1130.6204    
     45500  -165163.97      969.40453     -164194.56      194.90091      195.15707      1131.0811    
     45600  -165104.29      969.71414     -164134.58      194.88794      195.14443      1131.5419    
     45700  -165046.83      969.41236     -164077.42      194.87507      195.13287      1132.0026    
     45800  -164992.73      970.33225     -164022.39      194.86098      195.1208       1132.4633    
     45900  -164944.78      972.68682     -163972.1       194.84705      195.10936      1132.924     
     46000  -164894.98      970.43947     -163924.54      194.83323      195.09827      1133.3848    
     46100  -164834.99      964.285       -163870.71      194.81964      195.08623      1133.8455    
     46200  -164777.55      973.38146     -163804.17      194.80758      195.07469      1134.3062    
     46300  -164724.19      981.62805     -163742.57      194.79516      195.06151      1134.767     
     46400  -164671.76      979.77776     -163691.99      194.78355      195.04921      1135.2277    
     46500  -164613.08      967.51154     -163645.56      194.77029      195.03606      1135.6884    
     46600  -164563.45      971.12469     -163592.33      194.75659      195.02401      1136.1491    
     46700  -164504.85      969.18592     -163535.66      194.74237      195.01332      1136.6099    
     46800  -164458.62      979.37909     -163479.24      194.7284       195.00253      1137.0706    
     46900  -164395.64      970.61126     -163425.03      194.71491      194.99164      1137.5313    
     47000  -164344.08      967.25212     -163376.82      194.70181      194.97968      1137.992     
     47100  -164297.05      969.04265     -163328         194.68979      194.96633      1138.4528    
     47200  -164238.76      971.55709     -163267.2       194.67845      194.9525       1138.9135    
     47300  -164177.92      976.33244     -163201.59      194.66712      194.93807      1139.3742    
     47400  -164121.61      976.81934     -163144.79      194.6555       194.92405      1139.8349    
     47500  -164067.23      971.7035      -163095.53      194.64396      194.91224      1140.2957    
     47600  -164016.96      971.23184     -163045.73      194.63086      194.89918      1140.7564    
     47700  -163959.34      969.14659     -162990.19      194.61852      194.88784      1141.2171    
     47800  -163905.63      972.11413     -162933.51      194.6054       194.87603      1141.6778    
     47900  -163849.28      973.72642     -162875.56      194.59155      194.86276      1142.1386    
     48000  -163791.11      975.19525     -162815.91      194.57954      194.85056      1142.5993    
     48100  -163732.86      971.93338     -162760.93      194.56659      194.83657      1143.06      
     48200  -163679.47      964.4022      -162715.07      194.55427      194.82382      1143.5207    
     48300  -163636.38      971.9444      -162664.43      194.54193      194.81179      1143.9815    
     48400  -163578.87      973.09368     -162605.77      194.52867      194.79888      1144.4422    
     48500  -163513.58      975.89382     -162537.69      194.51581      194.78656      1144.9029    
     48600  -163453.46      975.72533     -162477.73      194.5032       194.77426      1145.3636    
     48700  -163405.28      976.93277     -162428.34      194.49028      194.76132      1145.8244    
     48800  -163355.34      977.69362     -162377.64      194.47821      194.74873      1146.2851    
     48900  -163303.85      974.86379     -162328.99      194.46603      194.73474      1146.7458    
     49000  -163247.21      969.37183     -162277.83      194.45463      194.72134      1147.2065    
     49100  -163190.37      968.86123     -162221.5       194.44317      194.708        1147.6673    
     49200  -163131.91      977.58819     -162154.32      194.43051      194.69443      1148.128     
     49300  -163077.03      984.56507     -162092.46      194.41863      194.68216      1148.5887    
     49400  -163020.96      975.40658     -162045.55      194.40489      194.66911      1149.0494    
     49500  -162969.82      974.01678     -161995.81      194.3912       194.6574       1149.5102    
     49600  -162913.06      971.98833     -161941.08      194.37754      194.64557      1149.9709    
     49700  -162855.93      969.17376     -161886.76      194.36371      194.63284      1150.4316    
     49800  -162802.13      969.31321     -161832.81      194.35113      194.62032      1150.8923    
     49900  -162749.31      970.02449     -161779.28      194.339        194.60685      1151.3531    
     50000  -162688.96      964.14037     -161724.82      194.3263       194.59301      1151.8138    
     50100  -162635.57      968.90213     -161666.67      194.31447      194.58057      1152.2745    
     50200  -162578.77      975.1966      -161603.58      194.30146      194.56757      1152.7352    
     50300  -162517.74      977.08739     -161540.66      194.28813      194.55482      1153.196     
     50400  -162466.53      976.79639     -161489.73      194.27583      194.54286      1153.6567    
     50500  -162422.21      977.30168     -161444.9       194.26267      194.52906      1154.1174    
     50600  -162359.02      969.91518     -161389.11      194.25168      194.51626      1154.5781    
     50700  -162307.6       977.97682     -161329.62      194.24039      194.50268      1155.0389    
     50800  -162245.11      977.13474     -161267.97      194.22805      194.48937      1155.4996    
     50900  -162183.94      976.30134     -161207.64      194.21569      194.4769       1155.9603    
     51000  -162133.72      975.3829      -161158.33      194.20217      194.46439      1156.4211    
     51100  -162087.38      977.00516     -161110.37      194.18834      194.45223      1156.8818    
     51200  -162031.2       976.48611     -161054.71      194.17498      194.44067      1157.3425    
     51300  -161970.53      974.24197     -160996.29      194.16226      194.42896      1157.8032    
     51400  -161912.12      975.35874     -160936.76      194.14898      194.41663      1158.264     
     51500  -161856.99      975.29746     -160881.69      194.1365       194.40586      1158.7247    
     51600  -161803.33      971.75456     -160831.57      194.12312      194.39366      1159.1854    
     51700  -161744.52      967.64857     -160776.87      194.10998      194.38035      1159.6461    
     51800  -161682.77      965.03463     -160717.73      194.09797      194.3675       1160.1069    
     51900  -161633.51      978.27597     -160655.24      194.085        194.35312      1160.5676    
     52000  -161568.4       973.34313     -160595.05      194.07372      194.34051      1161.0283    
     52100  -161520.51      978.00157     -160542.51      194.06142      194.32718      1161.489     
     52200  -161464.96      970.31617     -160494.65      194.04857      194.31446      1161.9498    
     52300  -161409.77      970.91312     -160438.86      194.03621      194.30385      1162.4105    
     52400  -161357.38      978.50477     -160378.88      194.02194      194.29143      1162.8712    
     52500  -161292.99      972.36375     -160320.62      194.00873      194.27952      1163.3319    
     52600  -161243.06      974.62648     -160268.44      193.99582      194.26815      1163.7927    
     52700  -161185.73      967.76666     -160217.97      193.98205      194.2555       1164.2534    
     52800  -161128.02      966.62352     -160161.4       193.9695       194.24465      1164.7141    
     52900  -161072.86      973.05463     -160099.8       193.95534      194.2323       1165.1748    
     53000  -161015.75      980.01921     -160035.73      193.94149      194.22037      1165.6356    
     53100  -160950.99      971.95235     -159979.04      193.92926      194.20994      1166.0963    
     53200  -160905.51      972.46925     -159933.04      193.91547      194.19585      1166.557     
     53300  -160848.68      971.06686     -159877.61      193.90427      194.18293      1167.0177    
     53400  -160789.61      971.66944     -159817.94      193.8925       194.16914      1167.4785    
     53500  -160736.03      975.20296     -159760.83      193.88002      194.15453      1167.9392    
     53600  -160674.94      963.70389     -159711.24      193.86864      194.14211      1168.3999    
     53700  -160628.19      970.17695     -159658.02      193.85566      194.12818      1168.8606    
     53800  -160573.14      977.41624     -159595.72      193.84337      194.1162       1169.3214    
     53900  -160501.1       975.94709     -159525.15      193.83129      194.10489      1169.7821    
     54000  -160443.86      980.60318     -159463.25      193.81809      194.09244      1170.2428    
     54100  -160391.83      971.87155     -159419.95      193.8056       194.08134      1170.7035    
     54200  -160340.14      974.11219     -159366.03      193.79186      194.06985      1171.1643    
     54300  -160282.57      968.71249     -159313.86      193.77775      194.05838      1171.625     
     54400  -160234.57      974.38426     -159260.19      193.76383      194.04753      1172.0857    
     54500  -160169.99      967.70959     -159202.28      193.74887      194.03494      1172.5464    
     54600  -160109.19      973.1286      -159136.06      193.73617      194.0235       1173.0072    
     54700  -160046.3       977.21703     -159069.09      193.72365      194.0109       1173.4679    
     54800  -159998.25      980.1822      -159018.07      193.71128      193.99778      1173.9286    
     54900  -159941.46      973.25696     -158968.2       193.69958      193.98494      1174.3893    
     55000  -159889.37      975.66202     -158913.71      193.68715      193.97113      1174.8501    
     55100  -159838.08      978.25168     -158859.83      193.67463      193.95803      1175.3108    
     55200  -159771.08      965.76629     -158805.32      193.66251      193.94597      1175.7715    
     55300  -159723.34      971.6531      -158751.69      193.6493       193.93258      1176.2322    
     55400  -159668.39      966.12344     -158702.26      193.6365       193.92032      1176.693     
     55500  -159611.68      968.12778     -158643.55      193.624        193.90849      1177.1537    
     55600  -159542.08      974.33672     -158567.74      193.61025      193.89491      1177.6144    
     55700  -159485.35      981.08154     -158504.27      193.59839      193.88187      1178.0752    
     55800  -159421.37      969.54286     -158451.82      193.58662      193.86859      1178.5359    
     55900  -159368.53      969.9349      -158398.6       193.57381      193.85474      1178.9966    
     56000  -159318.92      976.33723     -158342.58      193.56271      193.843        1179.4573    
     56100  -159263.44      975.82605     -158287.62      193.55021      193.8296       1179.9181    
     56200  -159202.33      970.99357     -158231.34      193.5382       193.81644      1180.3788    
     56300  -159145.23      971.21764     -158174.01      193.52695      193.80443      1180.8395    
     56400  -159094.97      966.11335     -158128.86      193.51384      193.79102      1181.3002    
     56500  -159038.63      969.59703     -158069.03      193.502        193.7789       1181.761     
     56600  -158970.9       972.06012     -157998.84      193.48904      193.76505      1182.2217    
     56700  -158908.44      976.34544     -157932.09      193.47611      193.75052      1182.6824    
     56800  -158849.58      973.06026     -157876.52      193.46507      193.73759      1183.1431    
     56900  -158801.74      976.58009     -157825.16      193.45331      193.72296      1183.6039    
     57000  -158742.21      975.78406     -157766.43      193.4417       193.70852      1184.0646    
     57100  -158684.08      974.96086     -157709.12      193.43068      193.69614      1184.5253    
     57200  -158629.04      973.286       -157655.75      193.41749      193.68317      1184.986     
     57300  -158566.71      968.71201     -157598         193.40537      193.67199      1185.4468    
     57400  -158507.43      970.25476     -157537.17      193.39282      193.6596       1185.9075    
     57500  -158454.42      977.39606     -157477.02      193.37978      193.64574      1186.3682    
     57600  -158394.41      977.37943     -157417.03      193.3687       193.63288      1186.8289    
     57700  -158337.57      978.81481     -157358.75      193.35627      193.61767      1187.2897    
     57800  -158281.3       977.4718      -157303.83      193.34406      193.60299      1187.7504    
     57900  -158220.65      973.61416     -157247.03      193.33222      193.59056      1188.2111    
     58000  -158161.35      973.53207     -157187.82      193.31779      193.57706      1188.6718    
     58100  -158109.36      981.1412      -157128.22      193.30533      193.56563      1189.1326    
     58200  -158036.71      968.59691     -157068.12      193.29244      193.55297      1189.5933    
     58300  -157980.99      972.81109     -157008.18      193.28047      193.54019      1190.054     
     58400  -157932.31      980.8972      -156951.41      193.26957      193.52713      1190.5147    
     58500  -157871.49      976.64115     -156894.85      193.25822      193.51322      1190.9755    
     58600  -157810.73      975.17739     -156835.55      193.24681      193.49934      1191.4362    
     58700  -157747.82      970.27431     -156777.55      193.23411      193.48489      1191.8969    
     58800  -157697.04      978.66432     -156718.37      193.22163      193.47125      1192.3576    
     58900  -157640.2       981.11613     -156659.08      193.20885      193.45794      1192.8184    
     59000  -157574.06      974.91649     -156599.14      193.19517      193.4446       1193.2791    
     59100  -157514.5       973.82662     -156540.67      193.18217      193.43234      1193.7398    
     59200  -157456.69      974.50507     -156482.19      193.16923      193.41942      1194.2005    
     59300  -157398.12      975.9092      -156422.21      193.15695      193.40645      1194.6613    
     59400  -157337.64      974.80815     -156362.83      193.14605      193.39447      1195.122     
     59500  -157272.08      967.0716      -156305.01      193.13362      193.38022      1195.5827    
     59600  -157218.05      972.33918     -156245.71      193.12216      193.36694      1196.0434    
     59700  -157162.27      977.55331     -156184.72      193.11025      193.35346      1196.5042    
     59800  -157103.14      978.46985     -156124.67      193.09746      193.34         1196.9649    
     59900  -157040.61      974.43991     -156066.17      193.08508      193.3275       1197.4256    
     60000  -156977.31      970.48632     -156006.82      193.07232      193.31505      1197.8863    
     60100  -156926.06      979.75374     -155946.31      193.05993      193.30229      1198.3471    
     60200  -156870.21      983.21714     -155887         193.04808      193.28913      1198.8078    
     60300  -156799.96      973.09472     -155826.87      193.0357       193.27485      1199.2685    
     60400  -156739.66      974.91677     -155764.74      193.02392      193.26119      1199.7293    
     60500  -156682.31      978.04835     -155704.26      193.01198      193.24792      1200.19      
     60600  -156616.45      972.18683     -155644.26      192.99931      193.23417      1200.6507    
     60700  -156552.01      967.4461      -155584.56      192.98829      193.22251      1201.1114    
     60800  -156499         974.49516     -155524.5       192.97605      193.20913      1201.5722    
     60900  -156443.24      980.61452     -155462.62      192.96386      193.19588      1202.0329    
     61000  -156376.59      974.50949     -155402.08      192.95214      193.18294      1202.4936    
     61100  -156311.8       970.27549     -155341.53      192.93901      193.16847      1202.9543    
     61200  -156250.97      970.88663     -155280.09      192.92739      193.15583      1203.4151    
     61300  -156191.94      973.06744     -155218.87      192.91479      193.14173      1203.8758    
     61400  -156138.25      981.66        -155156.59      192.90258      193.12781      1204.3365    
     61500  -156068.92      975.0472      -155093.87      192.89185      193.115        1204.7972    
     61600  -156003.87      970.69296     -155033.18      192.87986      193.10031      1205.258     
     61700  -155947.77      977.32128     -154970.45      192.86897      193.08648      1205.7187    
     61800  -155881.86      973.44613     -154908.41      192.8579       193.07214      1206.1794    
     61900  -155825.28      979.4198      -154845.86      192.84558      193.05764      1206.6401    
     62000  -155757.97      974.19139     -154783.78      192.83429      193.04543      1207.1009    
     62100  -155693.46      972.04057     -154721.42      192.82084      193.03102      1207.5616    
     62200  -155633.38      973.88343     -154659.5       192.80956      193.0186       1208.0223    
     62300  -155575.4       977.65876     -154597.74      192.79779      193.00536      1208.483     
     62400  -155508.86      973.80727     -154535.05      192.78563      192.99111      1208.9438    
     62500  -155442.7       970.82694     -154471.88      192.77437      192.97744      1209.4045    
     62600  -155386.49      978.9538      -154407.54      192.76154      192.96167      1209.8652    
     62700  -155317.44      975.73545     -154341.7       192.75031      192.94777      1210.3259    
     62800  -155256.53      978.59941     -154277.93      192.73874      192.93266      1210.7867    
     62900  -155195.06      980.89857     -154214.16      192.72786      192.91819      1211.2474    
     63000  -155125.25      975.62224     -154149.63      192.71738      192.90399      1211.7081    
     63100  -155066.04      980.27812     -154085.76      192.70568      192.88957      1212.1688    
     63200  -154996.53      974.69835     -154021.84      192.69442      192.8771       1212.6296    
     63300  -154935.06      977.80298     -153957.26      192.68177      192.8631       1213.0903    
     63400  -154871.6       978.84039     -153892.76      192.66944      192.8498       1213.551     
     63500  -154805.51      977.65874     -153827.85      192.65721      192.83617      1214.0117    
     63600  -154735.29      972.70361     -153762.58      192.64513      192.82162      1214.4725    
     63700  -154673.39      975.47364     -153697.92      192.63492      192.80787      1214.9332    
     63800  -154611         977.53395     -153633.47      192.6232       192.79164      1215.3939    
     63900  -154550.6       983.58565     -153567.01      192.61274      192.77718      1215.8546    
     64000  -154477.52      976.50811     -153501.01      192.60108      192.76294      1216.3154    
     64100  -154410.25      976.14563     -153434.1       192.58886      192.74893      1216.7761    
     64200  -154348.9       980.5676      -153368.34      192.5764       192.73564      1217.2368    
     64300  -154276.66      976.60918     -153300.05      192.56345      192.72147      1217.6975    
     64400  -154210.91      979.12943     -153231.78      192.55162      192.70811      1218.1583    
     64500  -154140.43      974.82605     -153165.61      192.53972      192.69369      1218.619     
     64600  -154078.74      980.44096     -153098.3       192.52767      192.67985      1219.0797    
     64700  -154008.87      977.63004     -153031.24      192.51625      192.66671      1219.5404    
     64800  -153941.99      979.45426     -152962.53      192.50411      192.65197      1220.0012    
     64900  -153868.34      975.07809     -152893.26      192.49362      192.63843      1220.4619    
     65000  -153805.9       981.23818     -152824.66      192.48151      192.62269      1220.9226    
     65100  -153733.29      977.10768     -152756.18      192.47048      192.60836      1221.3833    
     65200  -153664.7       977.07564     -152687.62      192.45881      192.59354      1221.8441    
     65300  -153595.86      977.18361     -152618.68      192.44597      192.57867      1222.3048    
     65400  -153530.02      980.63183     -152549.39      192.43385      192.56623      1222.7655    
     65500  -153459.36      980.87896     -152478.48      192.42002      192.55172      1223.2263    
     65600  -153386.41      977.46155     -152408.94      192.4088       192.5398       1223.687     
     65700  -153315.49      977.65406     -152337.83      192.39592      192.52543      1224.1477    
     65800  -153246.85      980.31941     -152266.53      192.38385      192.51211      1224.6084    
     65900  -153173.23      976.80895     -152196.42      192.37161      192.49949      1225.0692    
     66000  -153096.58      972.52201     -152124.05      192.35786      192.48552      1225.5299    
     66100  -153027.85      977.76084     -152050.09      192.34518      192.47374      1225.9906    
     66200  -152955.91      977.84748     -151978.06      192.33093      192.46004      1226.4513    
     66300  -152888.41      983.3728      -151905.04      192.31819      192.44719      1226.9121    
     66400  -152810.56      976.88508     -151833.67      192.30539      192.43364      1227.3728    
     66500  -152741.38      978.9528      -151762.43      192.29312      192.41932      1227.8335    
     66600  -152671.87      982.90301     -151688.97      192.28169      192.40552      1228.2942    
     66700  -152590.34      974.82214     -151615.52      192.26915      192.39027      1228.755     
     66800  -152521.66      979.31765     -151542.35      192.25818      192.37648      1229.2157    
     66900  -152447.29      977.64626     -151469.64      192.2455       192.36147      1229.6764    
     67000  -152377.84      981.45562     -151396.39      192.23401      192.34802      1230.1371    
     67100  -152302.1       981.04563     -151321.05      192.22188      192.33452      1230.5979    
     67200  -152223.52      977.7528      -151245.76      192.20841      192.3204       1231.0586    
     67300  -152152.11      983.80942     -151168.3       192.19649      192.30866      1231.5193    
     67400  -152067.28      975.90764     -151091.38      192.18227      192.29473      1231.98      
     67500  -152001.54      985.86687     -151015.68      192.16945      192.28289      1232.4408    
     67600  -151922.23      981.5782      -150940.65      192.15625      192.27024      1232.9015    
     67700  -151843.85      980.59974     -150863.25      192.14262      192.25643      1233.3622    
     67800  -151763.58      975.72443     -150787.86      192.13106      192.2445       1233.8229    
     67900  -151688.7       978.38953     -150710.31      192.11714      192.22969      1234.2837    
     68000  -151620.49      985.13623     -150635.35      192.10533      192.2172       1234.7444    
     68100  -151540.48      981.60915     -150558.87      192.09269      192.2033       1235.2051    
     68200  -151469.14      989.58077     -150479.56      192.07962      192.18887      1235.6658    
     68300  -151385.46      984.18254     -150401.28      192.06831      192.17646      1236.1266    
     68400  -151303.94      982.31725     -150321.62      192.05468      192.16166      1236.5873    
[...]
    130900  -180517.54      970.33673     -179547.2       197.15898      200.08273      1524.5407    
    131000  -180516.46      967.40065     -179549.06      197.16211      200.12333      1525.0015    
    131100  -180516.32      975.09176     -179541.23      197.16651      200.16408      1525.4622    
    131200  -180514.52      980.45559     -179534.07      197.17058      200.20518      1525.9229    
    131300  -180510.84      974.21285     -179536.62      197.17443      200.24506      1526.3836    
    131400  -180520.32      973.82775     -179546.49      197.17818      200.2785       1526.8444    
    131500  -180519.62      968.07306     -179551.55      197.18054      200.30867      1527.3051    
    131600  -180517.56      970.31461     -179547.24      197.18292      200.33718      1527.7658    
    131700  -180515.74      978.61636     -179537.13      197.18673      200.36003      1528.2265    
    131800  -180521.51      984.93285     -179536.58      197.19022      200.37935      1528.6873    
    131900  -180516.94      966.10862     -179550.84      197.19166      200.3971       1529.148     
    132000  -180527.08      962.08318     -179564.99      197.19173      200.41296      1529.6087    
    132100  -180528.37      963.34515     -179565.03      197.19282      200.4266       1530.0694    
    132200  -180522.84      971.38773     -179551.45      197.19403      200.44046      1530.5302    
    132300  -180519.45      979.61329     -179539.84      197.19493      200.45899      1530.9909    
    132400  -180517.14      973.38008     -179543.76      197.1961       200.4789       1531.4516    
    132500  -180534.76      976.01372     -179558.74      197.19946      200.50299      1531.9123    
    132600  -180532.04      962.7118      -179569.33      197.20489      200.53211      1532.3731    
    132700  -180532.91      968.61349     -179564.3       197.20955      200.56555      1532.8338    
    132800  -180522.65      973.40662     -179549.25      197.21511      200.60132      1533.2945    
    132900  -180526.89      985.49422     -179541.39      197.2209       200.63595      1533.7553    
    133000  -180522.8       974.41934     -179548.38      197.22637      200.67442      1534.216     
    133100  -180526.3       964.17474     -179562.13      197.23046      200.71256      1534.6767    
    133200  -180530.83      965.03531     -179565.79      197.23182      200.74553      1535.1374    
    133300  -180524.07      969.16059     -179554.91      197.23333      200.77376      1535.5982    
    133400  -180510.91      971.03157     -179539.88      197.22983      200.79464      1536.0589    
    133500  -180516.48      983.64007     -179532.84      197.22251      200.80953      1536.5196    
    133600  -180512.63      975.12615     -179537.5       197.20842      200.81072      1536.9803    
    133700  -180520.29      972.47947     -179547.81      197.18848      200.80666      1537.4411    
    133800  -180523.49      969.47879     -179554.01      197.16536      200.79723      1537.9018    
    133900  -180515.45      966.69843     -179548.75      197.13775      200.77819      1538.3625    
    134000  -180507.75      973.75102     -179534         197.11189      200.7569       1538.8232    
    134100  -180499.7       978.25112     -179521.45      197.08574      200.73609      1539.284     
    134200  -180494.98      972.08068     -179522.9       197.06225      200.72356      1539.7447    
    134300  -180508.35      977.11314     -179531.24      197.03858      200.71427      1540.2054    
    134400  -180501.26      965.69804     -179535.57      197.01776      200.71447      1540.6661    
    134500  -180499.85      968.30978     -179531.54      196.99758      200.72292      1541.1269    
    134600  -180494.55      973.64505     -179520.9       196.97888      200.73691      1541.5876    
    134700  -180490.17      979.18353     -179510.98      196.96178      200.753        1542.0483    
    134800  -180494.35      980.59219     -179513.76      196.94553      200.76935      1542.509     
    134900  -180498.2       974.26819     -179523.93      196.93091      200.78527      1542.9698    
    135000  -180496.46      966.53785     -179529.93      196.91935      200.79553      1543.4305    
    135100  -180500         973.18091     -179526.82      196.90893      200.80388      1543.8912    
    135200  -180488.25      971.98394     -179516.26      196.89886      200.81006      1544.3519    
    135300  -180490.73      984.09439     -179506.64      196.8895       200.81048      1544.8127    
    135400  -180489.33      980.42403     -179508.91      196.88339      200.80699      1545.2734    
    135500  -180486.4       965.81258     -179520.58      196.87888      200.80393      1545.7341    
    135600  -180494.45      964.52612     -179529.92      196.87484      200.80391      1546.1948    
    135700  -180491.29      965.09716     -179526.2       196.87111      200.80052      1546.6556    
    135800  -180488.18      978.51358     -179509.67      196.87054      200.79482      1547.1163    
    135900  -180479.59      980.62647     -179498.96      196.87078      200.79178      1547.577     
    136000  -180486.34      980.94604     -179505.39      196.86941      200.79045      1548.0377    
    136100  -180494.73      971.20923     -179523.52      196.86816      200.79197      1548.4985    
    136200  -180498.69      964.88036     -179533.81      196.8689       200.79428      1548.9592    
    136300  -180498.57      969.7855      -179528.78      196.87229      200.79978      1549.4199    
    136400  -180497.13      981.10339     -179516.02      196.8741       200.80156      1549.8806    
    136500  -180489.8       994.20659     -179495.59      196.87242      200.79566      1550.3414    
    136600  -180501.39      974.05824     -179527.33      196.87353      200.78519      1550.8021    
    136700  -180519.03      959.91008     -179559.12      196.87144      200.7646       1551.2628    
    136800  -180515.49      954.59485     -179560.9       196.86828      200.73678      1551.7235    
    136900  -180504.41      970.5196      -179533.89      196.86169      200.70149      1552.1843    
    137000  -180493.93      985.7728      -179508.16      196.85526      200.65965      1552.645     
    137100  -180493.21      984.53223     -179508.68      196.84899      200.61262      1553.1057    
    137200  -180507.11      973.30649     -179533.8       196.83986      200.56078      1553.5664    
    137300  -180513.78      955.68805     -179558.09      196.83118      200.50781      1554.0272    
    137400  -180516.79      955.61186     -179561.17      196.82178      200.45214      1554.4879    
    137500  -180512.09      970.86107     -179541.22      196.81186      200.39584      1554.9486    
    137600  -180500.63      980.92606     -179519.7       196.8035       200.34183      1555.4094    
    137700  -180511.04      990.95823     -179520.08      196.79424      200.29175      1555.8701    
    137800  -180520.23      974.36799     -179545.86      196.78739      200.24777      1556.3308    
    137900  -180535.93      963.05657     -179572.88      196.77742      200.20756      1556.7915    
    138000  -180539.52      960.57429     -179578.95      196.77018      200.17404      1557.2523    
    138100  -180530.92      971.60221     -179559.32      196.76099      200.14339      1557.713     
    138200  -180519.87      983.93401     -179535.93      196.75116      200.11762      1558.1737    
    138300  -180515.84      979.85455     -179535.99      196.73867      200.09037      1558.6344    
    138400  -180526.06      969.43482     -179556.62      196.72483      200.06074      1559.0952    
    138500  -180532.74      958.51748     -179574.22      196.7094       200.02994      1559.5559    
    138600  -180532.5       959.93556     -179572.56      196.69255      199.99538      1560.0166    
    138700  -180527.79      972.78579     -179555         196.6785       199.9562       1560.4773    
    138800  -180520.47      981.55861     -179538.92      196.6638       199.90938      1560.9381    
    138900  -180513.72      973.85673     -179539.86      196.6503       199.85962      1561.3988    
    139000  -180525.46      972.14374     -179553.32      196.63676      199.80554      1561.8595    
    139100  -180530.14      962.88117     -179567.25      196.62491      199.75222      1562.3202    
    139200  -180533.82      966.67508     -179567.14      196.61648      199.70242      1562.781     
    139300  -180523.13      970.715       -179552.41      196.60993      199.65593      1563.2417    
    139400  -180518.42      980.22304     -179538.2       196.60688      199.61247      1563.7024    
    139500  -180517.34      977.17516     -179540.17      196.6052       199.57002      1564.1631    
    139600  -180528.65      972.02475     -179556.62      196.60616      199.52811      1564.6239    
    139700  -180536.26      964.83158     -179571.43      196.60624      199.48685      1565.0846    
    139800  -180531.74      962.23981     -179569.5       196.60595      199.44973      1565.5453    
    139900  -180525.07      972.69769     -179552.37      196.6058       199.41506      1566.006     
    140000  -180516.55      978.65598     -179537.9       196.60572      199.38136      1566.4668    
    140100  -180519.54      981.4039      -179538.13      196.60578      199.34961      1566.9275    
    140200  -180517.23      967.56534     -179549.67      196.60656      199.31955      1567.3882    
    140300  -180524.11      966.31762     -179557.79      196.60931      199.29279      1567.8489    
    140400  -180520.96      966.58275     -179554.37      196.61433      199.2716       1568.3097    
    140500  -180525.84      980.33668     -179545.5       196.61904      199.2544       1568.7704    
    140600  -180518.35      977.69117     -179540.66      196.62651      199.2459       1569.2311    
    140700  -180526.33      979.17735     -179547.16      196.63242      199.24696      1569.6918    
    140800  -180529.52      969.52923     -179560         196.63948      199.25614      1570.1526    
    140900  -180535.28      967.25348     -179568.02      196.64801      199.27108      1570.6133    
    141000  -180533.82      969.86514     -179563.96      196.65588      199.29129      1571.074     
    141100  -180528.19      974.33419     -179553.86      196.66359      199.31542      1571.5347    
    141200  -180522.55      975.93189     -179546.62      196.66908      199.33896      1571.9955    
    141300  -180528.09      978.20559     -179549.89      196.67205      199.35937      1572.4562    
    141400  -180529.18      969.19694     -179559.98      196.67352      199.37932      1572.9169    
    141500  -180531.03      966.78776     -179564.24      196.66888      199.39421      1573.3776    
    141600  -180527.32      971.07961     -179556.24      196.66253      199.40239      1573.8384    
    141700  -180522.17      976.55898     -179545.61      196.65193      199.40037      1574.2991    
    141800  -180520.65      977.07186     -179543.57      196.63748      199.39242      1574.7598    
    141900  -180521.7       971.61278     -179550.08      196.61869      199.37343      1575.2205    
    142000  -180526.11      968.10923     -179558         196.59921      199.34591      1575.6813    
    142100  -180532.49      970.5414      -179561.94      196.57939      199.31519      1576.142     
    142200  -180533.68      973.59503     -179560.09      196.55465      199.28021      1576.6027    
    142300  -180526.78      970.38938     -179556.39      196.52892      199.24374      1577.0634    
    142400  -180532.62      977.33638     -179555.29      196.50268      199.20568      1577.5242    
    142500  -180536.42      975.29395     -179561.12      196.47512      199.17383      1577.9849    
    142600  -180540.69      971.21438     -179569.47      196.44505      199.14565      1578.4456    
    142700  -180543.01      970.24729     -179572.76      196.41694      199.12209      1578.9064    
    142800  -180540.67      972.78734     -179567.88      196.39029      199.1033       1579.3671    
    142900  -180536.3       975.59793     -179560.7       196.36342      199.09013      1579.8278    
    143000  -180529.24      970.13373     -179559.11      196.33873      199.08606      1580.2885    
    143100  -180538.26      971.24018     -179567.02      196.31246      199.08495      1580.7493    
    143200  -180547.69      970.71448     -179576.98      196.29035      199.08853      1581.21      
    143300  -180552.26      973.05233     -179579.21      196.26758      199.09589      1581.6707    
    143400  -180545.45      970.87856     -179574.57      196.24562      199.10714      1582.1314    
    143500  -180548.52      978.35879     -179570.16      196.22508      199.12136      1582.5922    
    143600  -180549.65      978.69085     -179570.96      196.20207      199.1374       1583.0529    
    143700  -180553.16      972.92471     -179580.24      196.17848      199.15627      1583.5136    
    143800  -180558.02      969.87849     -179588.15      196.15681      199.17527      1583.9743    
    143900  -180555.33      966.91303     -179588.42      196.13711      199.19371      1584.4351    
    144000  -180554.81      972.37908     -179582.43      196.11635      199.21428      1584.8958    
    144100  -180550.59      973.37016     -179577.22      196.09684      199.23569      1585.3565    
    144200  -180556.25      977.68493     -179578.56      196.07741      199.25469      1585.8172    
    144300  -180552.59      970.09726     -179582.5       196.0597       199.27685      1586.278     
    144400  -180563.03      977.01692     -179586.01      196.03929      199.30055      1586.7387    
    144500  -180559.68      969.73874     -179589.94      196.01812      199.31949      1587.1994    
    144600  -180560.74      969.61084     -179591.12      196.00091      199.33288      1587.6601    
    144700  -180561.9       973.88956     -179588.01      195.98456      199.34438      1588.1209    
    144800  -180564.88      979.34104     -179585.54      195.9671       199.34723      1588.5816    
    144900  -180559.05      971.96492     -179587.08      195.95452      199.34441      1589.0423    
    145000  -180567.28      974.91257     -179592.36      195.94147      199.33677      1589.503     
    145100  -180570.99      971.94562     -179599.04      195.93087      199.33139      1589.9638    
    145200  -180567.04      964.28921     -179602.75      195.92116      199.32441      1590.4245    
    145300  -180572.26      971.80303     -179600.46      195.91371      199.31599      1590.8852    
    145400  -180570.64      974.4038      -179596.24      195.91047      199.31647      1591.3459    
    145500  -180575.49      977.83792     -179597.65      195.90453      199.31909      1591.8067    
    145600  -180581.17      975.36791     -179605.8       195.90434      199.3277       1592.2674    
    145700  -180575.38      964.96009     -179610.42      195.90304      199.33648      1592.7281    
    145800  -180571.45      966.36385     -179605.09      195.90365      199.35168      1593.1888    
    145900  -180574.13      979.97821     -179594.15      195.90295      199.36882      1593.6496    
    146000  -180565.75      974.37548     -179591.37      195.90308      199.38514      1594.1103    
    146100  -180576.49      977.34589     -179599.15      195.90452      199.40564      1594.571     
    146200  -180577.93      968.97238     -179608.96      195.90538      199.42863      1595.0317    
    146300  -180579.35      968.53639     -179610.82      195.90938      199.45563      1595.4925    
    146400  -180570.27      967.14821     -179603.12      195.91339      199.48054      1595.9532    
    146500  -180564.45      972.50999     -179591.94      195.92051      199.50269      1596.4139    
    146600  -180567.25      976.04759     -179591.2       195.9262       199.51948      1596.8746    
    146700  -180566.88      967.04585     -179599.83      195.93324      199.53132      1597.3354    
    146800  -180576.05      967.39489     -179608.65      195.93972      199.54178      1597.7961    
    146900  -180580.01      969.96838     -179610.04      195.94301      199.54831      1598.2568    
    147000  -180572.62      970.28345     -179602.33      195.94921      199.55533      1598.7175    
    147100  -180571.09      978.6061      -179592.49      195.95464      199.55493      1599.1783    
    147200  -180575.73      982.77559     -179592.95      195.96245      199.5548       1599.639     
    147300  -180576.18      970.49154     -179605.69      195.97108      199.55549      1600.0997    
    147400  -180586.74      967.24077     -179619.5       195.98135      199.55283      1600.5605    
    147500  -180586.57      964.80458     -179621.76      195.99418      199.54742      1601.0212    
    147600  -180587.04      974.84018     -179612.2       196.00559      199.53761      1601.4819    
    147700  -180579.84      978.0769      -179601.76      196.01715      199.52827      1601.9426    
    147800  -180582.8       981.40073     -179601.4       196.02712      199.51486      1602.4034    
    147900  -180586.88      974.18554     -179612.69      196.03863      199.49636      1602.8641    
    148000  -180589.06      964.70243     -179624.36      196.05173      199.47358      1603.3248    
    148100  -180590.08      964.67581     -179625.4       196.06567      199.44697      1603.7855    
    148200  -180583.01      966.6643      -179616.34      196.08096      199.41787      1604.2463    
    148300  -180583.63      979.67278     -179603.95      196.097        199.38439      1604.707     
    148400  -180573.26      972.145       -179601.11      196.11413      199.3543       1605.1677    
    148500  -180590.67      980.15144     -179610.52      196.12955      199.32611      1605.6284    
    148600  -180579.56      959.64611     -179619.91      196.14949      199.30102      1606.0892    
    148700  -180583.66      967.38037     -179616.28      196.17037      199.27555      1606.5499    
    148800  -180575.85      972.84494     -179603.01      196.19458      199.25391      1607.0106    
    148900  -180567.17      975.5495      -179591.62      196.21929      199.23406      1607.4713    
    149000  -180574.81      980.8465      -179593.96      196.24717      199.2126       1607.9321    
    149100  -180583.91      977.03146     -179606.88      196.27892      199.18842      1608.3928    
    149200  -180579.84      962.59659     -179617.24      196.31205      199.1622       1608.8535    
    149300  -180579.93      965.19273     -179614.74      196.34655      199.132        1609.3142    
    149400  -180577.85      974.31867     -179603.53      196.38335      199.09558      1609.775     
    149500  -180574.45      980.40639     -179594.04      196.4218       199.05152      1610.2357    
    149600  -180574.4       978.35212     -179596.04      196.46099      199.00611      1610.6964    
    149700  -180584.33      974.6035      -179609.73      196.50144      198.95798      1611.1571    
    149800  -180581.51      961.68751     -179619.83      196.54302      198.90704      1611.6179    
    149900  -180588.22      971.88773     -179616.33      196.5861       198.85777      1612.0786    
    150000  -180575.71      970.65347     -179605.06      196.63038      198.80924      1612.5393    
    150100  -180578.08      981.36031     -179596.72      196.67462      198.75738      1613         
    150200  -180575.78      977.83588     -179597.94      196.71941      198.70123      1613.4608    
    150300  -180580.36      972.35815     -179608         196.7625       198.64489      1613.9215    
    150400  -180578.56      963.23981     -179615.32   