LAMMPS (2 Aug 2023 - Update 3)
OMP_NUM_THREADS environment is not set. Defaulting to 1 thread. (src/comm.cpp:98)
  using 1 OpenMP thread(s) per MPI task
Reading data file ...
  orthogonal box = (-100 -100 -2.3312515) to (100 100 46.166171)
  3 by 4 by 1 MPI processor grid
  reading atoms ...
  1480 atoms
  read_data CPU = 0.006 seconds
Replication is creating a 1x1x11 = 11 times larger system...
  orthogonal box = (-100 -100 -2.3312515) to (100 100 531.1404)
  2 by 2 by 3 MPI processor grid
  16280 atoms
  replicate CPU = 0.001 seconds
3960 atoms in group SR
Deleted 3960 atoms, new total = 12320
System init for write_data ...
WARNING: Communication cutoff is 0.0. No ghost atoms will be generated. Atoms may get lost. (src/comm_brick.cpp:210)
Reading airebo potential file CH.airebo with DATE: 2011-10-25
Reading airebo potential file CH.airebo with DATE: 2011-10-25
Reading airebo potential file CH.airebo with DATE: 2011-10-25
Neighbor list info ...
  update: every = 1 steps, delay = 0 steps, check = yes
  max neighbors/atom: 2000, page size: 100000
  master list distance cutoff = 13.2
  ghost atom cutoff = 13.2
  binsize = 6.6, bins = 31 31 81
  6 neighbor lists, perpetual/occasional/extra = 6 0 0
  (1) pair airebo, perpetual, skip from (5)
      attributes: full, newton on, ghost
      pair build: skip/ghost
      stencil: none
      bin: none
  (2) pair airebo, perpetual, skip from (5)
      attributes: full, newton on, ghost
      pair build: skip/ghost
      stencil: none
      bin: none
  (3) pair airebo, perpetual, skip from (5)
      attributes: full, newton on, ghost
      pair build: skip/ghost
      stencil: none
      bin: none
  (4) pair lj/cut, perpetual, skip from (6)
      attributes: half, newton on, cut 13
      pair build: skip
      stencil: none
      bin: none
  (5) neighbor class addition, perpetual
      attributes: full, newton on, ghost
      pair build: full/bin/ghost
      stencil: full/ghost/bin/3d
      bin: standard
  (6) neighbor class addition, perpetual
      attributes: half, newton on, cut 13
      pair build: half/bin/atomonly/newton
      stencil: half/bin/3d
      bin: standard
Setting up sd style minimization ...
  Unit style    : metal
  Current step  : 0
Per MPI rank memory allocation (min/avg/max) = 13.01 | 13.01 | 13.01 Mbytes
   Step          Temp          E_pair         E_mol          TotEng         Press     
         0   0             -91323.047      0             -91323.047     -48.029154    
         1   0             -91323.178      0             -91323.178     -47.94229     
Loop time of 0.0525297 on 12 procs for 1 steps with 12320 atoms

92.8% CPU use with 12 MPI tasks x 1 OpenMP threads

Minimization stats:
  Stopping criterion = energy tolerance
  Energy initial, next-to-last, final = 
     -91323.0473388767  -91323.0473388767  -91323.1782464682
  Force two-norm initial, final = 5.8261522 0.94787086
  Force max component initial, final = 0.052442243 0.0085447709
  Final line search alpha, max atom move = 1 0.0085447709
  Iterations, force evaluations = 1 2

MPI task timing breakdown:
Section |  min time  |  avg time  |  max time  |%varavg| %total
---------------------------------------------------------------
Pair    | 0.027841   | 0.039147   | 0.051637   |   4.8 | 74.52
Neigh   | 0          | 0          | 0          |   0.0 |  0.00
Comm    | 0.00060435 | 0.013034   | 0.024326   |   8.4 | 24.81
Output  | 0          | 0          | 0          |   0.0 |  0.00
Modify  | 0          | 0          | 0          |   0.0 |  0.00
Other   |            | 0.0003491  |            |       |  0.66

Nlocal:        1026.67 ave        1103 max         949 min
Histogram: 3 0 0 0 2 4 0 0 0 3
Nghost:        3686.67 ave        3776 max        3602 min
Histogram: 2 1 0 0 4 2 0 0 2 1
Neighs:              0 ave           0 max           0 min
Histogram: 12 0 0 0 0 0 0 0 0 0

Total # of neighbors = 0
Ave neighs/atom = 0
Neighbor list builds = 0
Dangerous builds = 0
Setting up Verlet run ...
  Unit style    : metal
  Current step  : 1
  Time step     : 0.001
Per MPI rank memory allocation (min/avg/max) = 13.63 | 13.64 | 13.64 Mbytes
   Step          Temp          E_pair         E_mol          TotEng         Press          Volume    
         1   300           -91323.178      0             -90845.472     -24.030664      21338866     
Loop time of 3.82711e-05 on 12 procs for 0 steps with 12320 atoms

69.9% CPU use with 12 MPI tasks x 1 OpenMP threads

MPI task timing breakdown:
Section |  min time  |  avg time  |  max time  |%varavg| %total
---------------------------------------------------------------
Pair    | 0          | 0          | 0          |   0.0 |  0.00
Neigh   | 0          | 0          | 0          |   0.0 |  0.00
Comm    | 0          | 0          | 0          |   0.0 |  0.00
Output  | 0          | 0          | 0          |   0.0 |  0.00
Modify  | 0          | 0          | 0          |   0.0 |  0.00
Other   |            | 3.827e-05  |            |       |100.00

Nlocal:        1026.67 ave        1029 max        1022 min
Histogram: 4 0 0 0 0 0 0 0 0 8
Nghost:        3686.67 ave        3703 max        3675 min
Histogram: 4 0 4 0 0 0 0 0 0 4
Neighs:              0 ave           0 max           0 min
Histogram: 12 0 0 0 0 0 0 0 0 0

Total # of neighbors = 0
Ave neighs/atom = 0
Neighbor list builds = 0
Dangerous builds = 0
WARNING: Dump 2 includes no atom IDs and is not sorted by ID. This may complicate post-processing tasks or visualization (src/dump.cpp:221)
Setting up Verlet run ...
  Unit style    : metal
  Current step  : 0
  Time step     : 0.001
Per MPI rank memory allocation (min/avg/max) = 15.13 | 15.14 | 15.14 Mbytes
   Step         PotEng         KinEng         TotEng           Lx             Ly             Lz      
         0  -91323.178      477.70672     -90845.472      200            200            533.47165    
       100  -91045.056      233.67582     -90811.38       199.99354      199.99501      533.73839    
       200  -91058.93       294.02109     -90764.909      199.99131      199.99388      534.00512    
       300  -91013.873      304.70747     -90709.166      199.99667      200.00041      534.27186    
       400  -90990.149      342.01225     -90648.137      199.98824      199.99307      534.5386     
       500  -90957.287      373.63184     -90583.655      199.98948      199.99559      534.80533    
       600  -90924.98       406.83154     -90518.148      199.9925       200.00022      535.07207    
       700  -90888.591      433.58703     -90455.004      199.98201      199.99034      535.3388     
       800  -90858.553      459.47253     -90399.08       199.98881      199.99721      535.60554    
       900  -90839.778      483.67515     -90356.103      199.98858      199.9972       535.87228    
      1000  -90823.564      488.37764     -90335.186      199.9766       199.98568      536.13901    
      1100  -90834.848      492.61291     -90342.235      199.98489      199.99392      536.40575    
      1200  -90839.859      475.36431     -90364.495      199.98134      199.98943      536.67248    
      1300  -90845.798      466.92513     -90378.873      199.97414      199.98097      536.93922    
      1400  -90844.278      470.51409     -90373.764      199.9824       199.98835      537.20595    
      1500  -90832.36       479.56151     -90352.799      199.9745       199.97924      537.47269    
      1600  -90818.44       484.41509     -90334.024      199.9708       199.97394      537.73943    
      1700  -90815.169      483.76329     -90331.405      199.97969      199.9803       538.00616    
      1800  -90819.536      476.3225      -90343.213      199.96891      199.9671       538.2729     
      1900  -90827.88       473.36566     -90354.515      199.96783      199.96394      538.53963    
      2000  -90822.595      470.34568     -90352.249      199.97364      199.96739      538.80637    
      2100  -90815.145      478.57434     -90336.571      199.96209      199.95272      539.07311    
      2200  -90799.729      479.43822     -90320.291      199.96575      199.95311      539.33984    
      2300  -90797.589      483.26675     -90314.322      199.9681       199.95229      539.60658    
      2400  -90795.276      475.14069     -90320.135      199.95599      199.93683      539.87331    
      2500  -90803.903      475.6224      -90328.28       199.96119      199.93813      540.14005    
      2600  -90798.503      471.56806     -90326.935      199.96012      199.933        540.40678    
      2700  -90787.112      472.3897      -90314.722      199.94957      199.91871      540.67352    
      2800  -90776.378      476.73196     -90299.646      199.95532      199.92113      540.94026    
      2900  -90769.161      480.59134     -90288.57       199.94972      199.91155      541.20699    
      3000  -90769.44       481.67444     -90287.765      199.94187      199.8995       541.47373    
      3100  -90768.179      474.47553     -90293.703      199.94785      199.90121      541.74046    
      3200  -90768.787      473.4124      -90295.375      199.93935      199.88893      542.0072     
      3300  -90757.762      469.59818     -90288.164      199.9328       199.87886      542.27394    
      3400  -90749.039      475.38302     -90273.656      199.93753      199.87987      542.54067    
      3500  -90743.648      483.68239     -90259.965      199.92689      199.86577      542.80741    
      3600  -90736.691      480.61039     -90256.08       199.92155      199.85774      543.07414    
      3700  -90737.285      477.50197     -90259.783      199.92284      199.857        543.34088    
      3800  -90736.02       475.20663     -90260.813      199.90957      199.84156      543.60761    
      3900  -90725.304      471.31937     -90253.984      199.90696      199.83675      543.87435    
      4000  -90718.66       478.87429     -90239.785      199.90616      199.83387      544.14109    
      4100  -90708.766      482.84767     -90225.918      199.89173      199.81801      544.40782    
      4200  -90702.678      481.75093     -90220.928      199.88911      199.81425      544.67456    
      4300  -90698.746      477.42211     -90221.324      199.88439      199.80865      544.94129    
      4400  -90697.107      476.679       -90220.428      199.87055      199.79401      545.20803    
      4500  -90686.815      472.96887     -90213.846      199.86785      199.79063      545.47477    
      4600  -90684.703      483.9709      -90200.732      199.86031      199.78284      545.7415     
      4700  -90671.152      482.91696     -90188.235      199.84663      199.7694       546.00824    
      4800  -90664.773      483.55756     -90181.215      199.84315      199.76603      546.27497    
      4900  -90656.014      476.97552     -90179.039      199.83236      199.75568      546.54171    
      5000  -90652.542      476.25034     -90176.292      199.81877      199.74287      546.80844    
      5100  -90644.808      475.89651     -90168.911      199.81357      199.73862      547.07518    
      5200  -90632.559      476.64815     -90155.91       199.80099      199.72721      547.34192    
      5300  -90627.267      483.67152     -90143.596      199.7879       199.71542      547.60865    
      5400  -90612.274      477.0243      -90135.25       199.78119      199.70967      547.87539    
      5500  -90604.365      473.91431     -90130.45       199.76655      199.69636      548.14212    
      5600  -90600.791      473.76059     -90127.03       199.75399      199.68518      548.40886    
      5700  -90594.963      474.52173     -90120.441      199.74538      199.67802      548.6756     
      5800  -90584.03       475.43004     -90108.6        199.72952      199.66378      548.94233    
      5900  -90579.618      484.50909     -90095.109      199.71739      199.65281      549.20907    
      6000  -90561.49       477.10418     -90084.386      199.70724      199.64381      549.4758     
      6100  -90555.742      477.95423     -90077.788      199.69109      199.62852      549.74254    
      6200  -90551.411      476.54856     -90074.862      199.67976      199.61701      550.00927    
      6300  -90545.697      476.66972     -90069.027      199.66817      199.60519      550.27601    
      6400  -90536.854      478.68555     -90058.168      199.65195      199.5889       550.54275    
      6500  -90518.558      474.78816     -90043.77       199.63992      199.57635      550.80948    
      6600  -90511.274      481.46707     -90029.807      199.6276       199.56297      551.07622    
      6700  -90500.534      479.28438     -90021.25       199.61218      199.54551      551.34295    
      6800  -90493.829      477.07268     -90016.756      199.59905      199.53033      551.60969    
      6900  -90484.069      474.12008     -90009.949      199.58593      199.51486      551.87643    
      7000  -90472.975      473.69268     -89999.282      199.57141      199.4971       552.14316    
      7100  -90465.337      479.97005     -89985.367      199.55782      199.47992      552.4099     
      7200  -90455.178      483.91813     -89971.26       199.54433      199.46277      552.67663    
      7300  -90436.689      475.91626     -89960.773      199.52941      199.44418      552.94337    
      7400  -90430.557      476.41252     -89954.144      199.51474      199.42527      553.2101     
      7500  -90421.484      472.92596     -89948.558      199.50189      199.40743      553.47684    
      7600  -90413.981      474.43979     -89939.541      199.48637      199.38714      553.74358    
      7700  -90402.553      477.08492     -89925.468      199.47093      199.36649      554.01031    
      7800  -90385.439      476.18953     -89909.249      199.4572       199.34749      554.27705    
      7900  -90376.462      481.20401     -89895.258      199.44078      199.32609      554.54378    
      8000  -90362.608      477.51737     -89885.091      199.4246       199.30491      554.81052    
      8100  -90353.929      476.18038     -89877.748      199.41066      199.28536      555.07725    
      8200  -90346.157      476.63085     -89869.526      199.39253      199.26201      555.34399    
      8300  -90330.759      471.84596     -89858.913      199.37603      199.24085      555.61073    
      8400  -90321.563      477.39309     -89844.17       199.35968      199.22016      555.87746    
      8500  -90309.979      483.77895     -89826.2        199.3401       199.19569      556.1442     
      8600  -90290.92       478.77684     -89812.143      199.32439      199.17504      556.41093    
      8700  -90281.272      477.45552     -89803.816      199.30626      199.15285      556.67767    
      8800  -90269.507      472.44353     -89797.063      199.28422      199.12723      556.94441    
      8900  -90262.302      474.12514     -89788.177      199.26812      199.10688      557.21114    
      9000  -90250.631      478.12949     -89772.501      199.24738      199.08256      557.47788    
      9100  -90231.443      477.81106     -89753.632      199.22482      199.05726      557.74461    
      9200  -90221.426      483.71786     -89737.709      199.20699      199.03754      558.01135    
      9300  -90204.531      476.37593     -89728.155      199.18383      199.01216      558.27808    
      9400  -90196.987      475.42905     -89721.558      199.15945      198.98588      558.54482    
      9500  -90188.487      476.11491     -89712.372      199.14016      198.96498      558.81156    
      9600  -90171.083      475.52832     -89695.554      199.11392      198.93814      559.07829    
      9700  -90152.51       477.98029     -89674.53       199.08939      198.91352      559.34503    
      9800  -90140.459      484.19699     -89656.262      199.06846      198.89201      559.61176    
      9900  -90125.409      481.02416     -89644.385      199.04007      198.86369      559.8785     
     10000  -90114.647      476.97317     -89637.674      199.01393      198.8389       560.14524    
     10100  -90098.955      469.96071     -89628.994      198.99009      198.81655      560.41197    
     10200  -90089.637      475.97567     -89613.662      198.95999      198.78779      560.67871    
     10300  -90072.845      478.40235     -89594.442      198.93398      198.76289      560.94544    
     10400  -90054.21       478.89153     -89575.318      198.90779      198.73855      561.21218    
     10500  -90041.521      480.94027     -89560.581      198.87609      198.70851      561.47891    
     10600  -90029.426      478.44451     -89550.982      198.84891      198.68228      561.74565    
     10700  -90016.526      475.13189     -89541.395      198.82179      198.65548      562.01239    
     10800  -90003.962      477.25124     -89526.711      198.7894       198.62363      562.27912    
     10900  -89987.499      479.39862     -89508.101      198.76209      198.59701      562.54586    
     11000  -89968.365      480.09411     -89488.271      198.73287      198.56798      562.81259    
     11100  -89951.04       478.67111     -89472.369      198.70037      198.53469      563.07933    
     11200  -89936.741      476.70892     -89460.032      198.67217      198.50545      563.34607    
     11300  -89921.32       472.48864     -89448.831      198.64177      198.47427      563.6128     
     11400  -89910.098      475.0963      -89435.001      198.60857      198.43955      563.87954    
     11500  -89892.415      475.176       -89417.239      198.58062      198.4091       564.14627    
     11600  -89876.969      480.24028     -89396.728      198.5497       198.375        564.41301    
     11700  -89860.07       480.41016     -89379.66       198.51629      198.33866      564.67974    
     11800  -89845.615      477.27662     -89368.338      198.48709      198.30643      564.94648    
     11900  -89835.577      477.85002     -89357.727      198.45529      198.26999      565.21322    
     12000  -89818.559      476.93005     -89341.629      198.42226      198.23189      565.47995    
     12100  -89796.797      478.96348     -89317.833      198.39328      198.19797      565.74669    
     12200  -89776.508      481.0312      -89295.477      198.36015      198.15981      566.01342    
     12300  -89765.487      482.803       -89282.684      198.3273       198.12065      566.28016    
     12400  -89747.831      476.58179     -89271.249      198.29769      198.08454      566.5469     
     12500  -89733.979      477.33575     -89256.643      198.2644       198.04484      566.81363    
     12600  -89718.361      477.75802     -89240.603      198.23166      198.00596      567.08037    
     12700  -89700.528      478.41005     -89222.118      198.20018      197.96816      567.3471     
     12800  -89679.038      484.12258     -89194.916      198.16716      197.92799      567.61384    
     12900  -89660.888      485.70842     -89175.18       198.13487      197.8888       567.88057    
     13000  -89645.521      479.95588     -89165.565      198.10265      197.85064      568.14731    
     13100  -89632.733      479.58742     -89153.145      198.06837      197.81031      568.41405    
     13200  -89611.248      472.93694     -89138.311      198.03595      197.77138      568.68078    
     13300  -89595.095      474.73056     -89120.365      198.00328      197.73268      568.94752    
     13400  -89578.633      483.46524     -89095.168      197.96881      197.69327      569.21425    
     13500  -89551.736      478.65494     -89073.081      197.93581      197.65559      569.48099    
     13600  -89540.585      480.72423     -89059.861      197.9022       197.61743      569.74773    
     13700  -89525.212      477.90327     -89047.309      197.86739      197.57907      570.01446    
     13800  -89510.271      479.34107     -89030.93       197.83386      197.5425       570.2812     
     13900  -89498.091      485.73857     -89012.352      197.79917      197.50495      570.54793    
     14000  -89473.691      481.56892     -88992.122      197.76498      197.46867      570.81467    
     14100  -89447.115      477.48856     -88969.626      197.73058      197.43284      571.0814     
     14200  -89432.576      483.8348      -88948.741      197.69557      197.39652      571.34814    
     14300  -89414.127      477.90985     -88936.217      197.66152      197.36175      571.61488    
     14400  -89395.658      472.28594     -88923.372      197.62641      197.32686      571.88161    
     14500  -89382.379      478.89343     -88903.485      197.59201      197.29233      572.14835    
     14600  -89358.178      477.43379     -88880.745      197.55903      197.25942      572.41508    
     14700  -89333.833      477.91714     -88855.916      197.52357      197.22447      572.68182    
     14800  -89310.169      482.76503     -88827.404      197.49035      197.19207      572.94856    
     14900  -89290.035      486.00486     -88804.03       197.45845      197.16076      573.21529    
     15000  -89276.012      482.59543     -88793.416      197.4234       197.12654      573.48203    
     15100  -89258.556      478.02165     -88780.534      197.39158      197.09568      573.74876    
     15200  -89246.368      478.46844     -88767.899      197.36012      197.06539      574.0155     
     15300  -89226.847      476.20504     -88750.642      197.32582      197.0321       574.28223    
     15400  -89204.619      475.17346     -88729.446      197.29626      197.00315      574.54897    
     15500  -89178.964      476.98534     -88701.978      197.26535      196.97274      574.81571    
     15600  -89158.813      479.72164     -88679.092      197.23329      196.94157      575.08244    
     15700  -89145.46       483.77232     -88661.688      197.20525      196.91377      575.34918    
     15800  -89124.605      479.25079     -88645.354      197.17528      196.88387      575.61591    
     15900  -89102.338      476.34721     -88625.99       197.14494      196.85311      575.88265    
     16000  -89077.806      473.40897     -88604.397      197.1185       196.82603      576.14939    
     16100  -89060.512      479.06378     -88581.448      197.09052      196.79736      576.41612    
     16200  -89039.604      481.40912     -88558.195      197.06238      196.76788      576.68286    
     16300  -89020.764      485.04334     -88535.72       197.03808      196.74189      576.94959    
     16400  -88993.844      476.35111     -88517.493      197.01084      196.71251      577.21633    
     16500  -88981.186      478.19448     -88502.992      196.98443      196.68348      577.48306    
     16600  -88959.465      474.52623     -88484.939      196.96255      196.65821      577.7498     
     16700  -88933.977      474.24101     -88459.736      196.9373       196.62899      578.01654    
     16800  -88909.408      479.34668     -88430.061      196.91302      196.60104      578.28327    
     16900  -88888.968      480.01295     -88408.955      196.8918       196.5758       578.55001    
     17000  -88868.819      477.94742     -88390.871      196.86791      196.54687      578.81674    
     17100  -88849.019      475.76045     -88373.258      196.84656      196.52028      579.08348    
     17200  -88832.176      478.33119     -88353.845      196.82706      196.49578      579.35022    
     17300  -88807.58       472.63306     -88334.947      196.8051       196.46896      579.61695    
     17400  -88788.098      475.96326     -88312.134      196.7839       196.44282      579.88369    
     17500  -88758.414      474.53576     -88283.878      196.7662       196.41924      580.15042    
     17600  -88739.285      481.12747     -88258.158      196.74582      196.39404      580.41716    
     17700  -88718.309      479.53089     -88238.778      196.72584      196.36916      580.68389    
     17800  -88700.092      475.18819     -88224.904      196.70794      196.34655      580.95063    
     17900  -88676.726      470.77924     -88205.947      196.68859      196.32259      581.21737    
     18000  -88653.521      473.21897     -88180.302      196.66939      196.29938      581.4841     
     18100  -88630.733      476.6571      -88154.075      196.65264      196.27958      581.75084    
     18200  -88608.135      480.21734     -88127.917      196.63343      196.25726      582.01757    
     18300  -88583.243      478.42917     -88104.814      196.61502      196.23558      582.28431    
     18400  -88566.567      478.28123     -88088.285      196.59882      196.21697      582.55105    
     18500  -88545.128      473.11491     -88072.013      196.57967      196.19607      582.81778    
     18600  -88520.055      474.91169     -88045.143      196.56215      196.17691      583.08452    
     18700  -88498.973      482.59        -88016.383      196.54673      196.16042      583.35125    
     18800  -88467.962      476.55459     -87991.407      196.52711      196.14013      583.61799    
     18900  -88444.729      476.71912     -87968.01       196.51068      196.12346      583.88472    
     19000  -88424.393      476.65873     -87947.734      196.49629      196.1096       584.15146    
     19100  -88406.296      472.36208     -87933.934      196.47634      196.09027      584.4182     
     19200  -88381.405      471.85235     -87909.553      196.46018      196.07446      584.68493    
     19300  -88355.247      475.0658      -87880.181      196.44661      196.06242      584.95167    
     19400  -88332.128      478.59124     -87853.537      196.42701      196.04473      585.2184     
     19500  -88305.199      476.78216     -87828.417      196.41171      196.03104      585.48514    
     19600  -88280.828      477.87569     -87802.953      196.39817      196.01964      585.75187    
     19700  -88260.69       484.21466     -87776.476      196.37906      196.00288      586.01861    
     19800  -88229.604      476.23039     -87753.374      196.36489      195.99073      586.28535    
     19900  -88212.637      476.60113     -87736.036      196.35165      195.97983      586.55208    
     20000  -88192.18       476.43697     -87715.743      196.33304      195.96375      586.81882    
     20100  -88165.407      476.26407     -87689.143      196.31975      195.95287      587.08555    
     20200  -88131.456      476.13564     -87655.32       196.30692      195.94229      587.35229    
     20300  -88113.141      482.17485     -87630.967      196.28938      195.92709      587.61903    
     20400  -88086.908      476.18646     -87610.722      196.27737      195.91747      587.88576    
     20500  -88066.553      475.65229     -87590.901      196.26459      195.90688      588.1525     
     20600  -88044.59       477.50293     -87567.087      196.24771      195.89197      588.41923    
     20700  -88012.041      476.29355     -87535.748      196.23726      195.88311      588.68597    
     20800  -87985.62       480.63778     -87504.983      196.2243       195.8716       588.9527     
     20900  -87961.215      478.96465     -87482.25       196.2086       195.85691      589.21944    
     21000  -87939.155      475.02738     -87464.128      196.19913      195.8478       589.48618    
     21100  -87919.655      477.54051     -87442.115      196.18648      195.83562      589.75291    
     21200  -87892.468      477.42622     -87415.042      196.17177      195.82113      590.01965    
     21300  -87865.719      478.69226     -87387.027      196.16246      195.81144      590.28638    
     21400  -87832.029      471.49699     -87360.532      196.15032      195.79851      590.55312    
     21500  -87810.417      477.54154     -87332.876      196.13614      195.78327      590.81986    
     21600  -87781.708      477.03662     -87304.671      196.12817      195.77444      591.08659    
     21700  -87758.3        482.26513     -87276.035      196.11635      195.76071      591.35333    
     21800  -87734.657      485.21713     -87249.44       196.10342      195.74512      591.62006    
     21900  -87709.804      478.36427     -87231.44       196.09603      195.73498      591.8868     
     22000  -87678.343      467.94167     -87210.401      196.08391      195.72055      592.15353    
     22100  -87656.589      472.86331     -87183.726      196.07163      195.70455      592.42027    
     22200  -87626.139      473.86061     -87152.278      196.06491      195.69393      592.68701    
     22300  -87598.699      479.31708     -87119.382      196.05308      195.67865      592.95374    
     22400  -87573.774      479.50114     -87094.273      196.04063      195.66251      593.22048    
     22500  -87548.52       477.19945     -87071.321      196.03397      195.65157      593.48721    
     22600  -87528.664      479.97387     -87048.69       196.02304      195.636        593.75395    
     22700  -87502.774      476.79212     -87025.982      196.01107      195.62013      594.02069    
     22800  -87478.128      476.59489     -87001.533      196.00369      195.60899      594.28742    
     22900  -87446.68       475.50903     -86971.171      195.99185      195.59302      594.55416    
     23000  -87419.9        481.26413     -86938.636      195.98073      195.57764      594.82089    
     23100  -87393.081      481.72879     -86911.352      195.97294      195.56651      595.08763    
     23200  -87370.82       480.51704     -86890.303      195.96018      195.55074      595.35436    
     23300  -87342.696      471.98422     -86870.711      195.94899      195.53604      595.6211     
     23400  -87312.435      470.05698     -86842.378      195.93995      195.52374      595.88784    
     23500  -87288.019      476.80047     -86811.218      195.92753      195.50896      596.15457    
     23600  -87260.84       478.72134     -86782.119      195.91598      195.49562      596.42131    
     23700  -87235.889      481.39963     -86754.489      195.90563      195.48378      596.68804    
     23800  -87208.089      480.24365     -86727.846      195.89274      195.46935      596.95478    
     23900  -87179.581      479.61883     -86699.962      195.88027      195.45683      597.22152    
     24000  -87151.821      482.38084     -86669.44       195.8693       195.44575      597.48825    
     24100  -87116.529      475.9836      -86640.545      195.85557      195.43201      597.75499    
     24200  -87098.1        481.07302     -86617.027      195.84354      195.42042      598.02172    
     24300  -87072.982      476.83463     -86596.148      195.83136      195.40925      598.28846    
     24400  -87045.044      476.63032     -86568.414      195.81628      195.39604      598.55519    
     24500  -87013.76       479.73837     -86534.022      195.80488      195.38625      598.82193    
     24600  -86984.138      483.42765     -86500.71       195.79232      195.3755       599.08867    
     24700  -86953.719      478.34345     -86475.375      195.77693      195.36234      599.3554     
     24800  -86931.567      478.73803     -86452.829      195.76482      195.35322      599.62214    
     24900  -86905.346      477.15384     -86428.192      195.751        195.34271      599.88887    
     25000  -86882.212      482.67273     -86399.54       195.73588      195.3302       600.15561    
     25100  -86845.692      482.94676     -86362.746      195.72399      195.32159      600.42235    
     25200  -86810.613      479.32623     -86331.287      195.70917      195.31067      600.68908    
     25300  -86785.871      479.16444     -86306.706      195.69283      195.29787      600.95582    
     25400  -86762.226      477.07294     -86285.153      195.68126      195.28934      601.22255    
     25500  -86733.302      475.61786     -86257.684      195.66681      195.2781       601.48929    
     25600  -86701.848      474.33952     -86227.509      195.65078      195.26575      601.75602    
     25700  -86676.583      479.73835     -86196.845      195.63787      195.25631      602.02276    
     25800  -86639.557      474.637       -86164.92       195.62301      195.24451      602.2895     
     25900  -86614.49       481.81726     -86132.673      195.60777      195.23208      602.55623    
     26000  -86584.196      484.03788     -86100.158      195.59519      195.22241      602.82297    
     26100  -86545.981      476.10473     -86069.876      195.58013      195.20942      603.0897     
     26200  -86528.143      479.87024     -86048.273      195.56471      195.19537      603.35644    
     26300  -86500.339      474.89627     -86025.443      195.55266      195.18472      603.62318    
     26400  -86475.464      478.30441     -85997.159      195.53792      195.17064      603.88991    
     26500  -86441.98       478.53355     -85963.447      195.52259      195.15602      604.15665    
     26600  -86404.577      477.67397     -85926.903      195.51079      195.14386      604.42338    
     26700  -86382.976      484.87147     -85898.105      195.49549      195.12748      604.69012    
     26800  -86351.458      479.46021     -85871.998      195.48104      195.1122       604.95685    
     26900  -86324.014      477.90999     -85846.104      195.4698       195.09911      605.22359    
     27000  -86293.6        475.55722     -85818.043      195.45495      195.08167      605.49033    
     27100  -86261.908      473.899       -85788.009      195.44112      195.06504      605.75706    
     27200  -86232.887      478.59904     -85754.288      195.42921      195.0498       606.0238     
     27300  -86199.171      477.69551     -85721.476      195.41485      195.03215      606.29053    
     27400  -86168.643      474.21664     -85694.427      195.40192      195.01533      606.55727    
     27500  -86149.05       476.68428     -85672.366      195.38945      194.99811      606.82401    
     27600  -86117.836      473.38966     -85644.447      195.37436      194.97859      607.09074    
     27700  -86089.707      479.20838     -85610.499      195.36166      194.96099      607.35748    
     27800  -86058.273      480.2814      -85577.991      195.34957      194.94373      607.62421    
     27900  -86025.138      477.12437     -85548.014      195.3349       194.92416      607.89095    
     28000  -85996.525      477.84655     -85518.679      195.3217       194.9059       608.15768    
     28100  -85960.536      472.54413     -85487.992      195.30885      194.88759      608.42442    
     28200  -85932.49       479.46098     -85453.029      195.29417      194.86807      608.69116    
     28300  -85901.715      482.26633     -85419.449      195.28107      194.85041      608.95789    
     28400  -85871.029      475.91802     -85395.111      195.26704      194.83231      609.22463    
     28500  -85845.549      473.09614     -85372.452      195.2512       194.8123       609.49136    
     28600  -85813.683      471.94954     -85341.734      195.23684      194.79449      609.7581     
     28700  -85782.079      475.39016     -85306.689      195.22203      194.77664      610.02484    
     28800  -85753.391      480.64286     -85272.748      195.2062       194.75783      610.29157    
     28900  -85719.174      476.6762      -85242.498      195.19167      194.7408       610.55831    
     29000  -85692.685      479.38799     -85213.297      195.17589      194.72357      610.82504    
     29100  -85658.7        475.2193      -85183.48       195.15853      194.70506      611.09178    
     29200  -85628.669      475.25696     -85153.412      195.14305      194.68873      611.35851    
     29300  -85595.13       472.62432     -85122.505      195.12708      194.6724       611.62525    
     29400  -85566.455      478.12236     -85088.332      195.10874      194.65471      611.89199    
     29500  -85532.393      479.69012     -85052.703      195.09181      194.63844      612.15872    
     29600  -85499.638      479.16937     -85020.468      195.07439      194.62211      612.42546    
     29700  -85468.292      471.91978     -84996.372      195.05682      194.60604      612.69219    
     29800  -85442.287      470.47963     -84971.808      195.03909      194.59004      612.95893    
     29900  -85415.286      475.7146      -84939.571      195.02033      194.57421      613.22567    
     30000  -85379.576      475.71267     -84903.863      195.00155      194.55896      613.4924     
     30100  -85347.297      477.58948     -84869.707      194.98231      194.54279      613.75914    
     30200  -85315.313      476.44206     -84838.871      194.96329      194.52705      614.02587    
     30300  -85286.303      477.73221     -84808.571      194.94409      194.51208      614.29261    
     30400  -85254.507      478.4848      -84776.022      194.92277      194.49574      614.55934    
     30500  -85215.137      477.61033     -84737.527      194.9031       194.47958      614.82608    
     30600  -85187.363      484.14593     -84703.217      194.88354      194.46401      615.09282    
     30700  -85160.855      483.23093     -84677.624      194.86233      194.44787      615.35955    
     30800  -85129.314      477.16182     -84652.153      194.84133      194.43138      615.62629    
     30900  -85092.607      472.56618     -84620.041      194.82096      194.41478      615.89302    
     31000  -85064.314      479.86419     -84584.45       194.7998       194.39737      616.15976    
     31100  -85027.537      478.60686     -84548.93       194.77929      194.38139      616.4265     
     31200  -84994.266      477.70954     -84516.557      194.75819      194.36462      616.69323    
     31300  -84962.91       473.80067     -84489.109      194.73686      194.34594      616.95997    
     31400  -84938.98       469.08563     -84469.894      194.7161       194.32836      617.2267     
     31500  -84904.156      468.349       -84435.807      194.69487      194.31035      617.49344    
     31600  -84877.58       481.51154     -84396.069      194.67337      194.29063      617.76017    
     31700  -84837.826      478.4041      -84359.421      194.65369      194.27253      618.02691    
     31800  -84805.782      481.71559     -84324.067      194.63197      194.25211      618.29365    
     31900  -84771.008      481.38872     -84289.62       194.61015      194.23107      618.56038    
     32000  -84734.093      474.1602      -84259.932      194.59221      194.21282      618.82712    
     32100  -84713.911      477.27346     -84236.638      194.57125      194.19119      619.09385    
     32200  -84682.401      476.21371     -84206.187      194.54944      194.16868      619.36059    
     32300  -84648.399      480.09961     -84168.299      194.53152      194.14901      619.62732    
     32400  -84612.473      481.54721     -84130.926      194.51141      194.12601      619.89406    
     32500  -84580.163      481.33228     -84098.831      194.49024      194.10226      620.1608     
     32600  -84546.635      477.87778     -84068.757      194.47275      194.08199      620.42753    
     32700  -84516.67       476.46304     -84040.207      194.45279      194.05799      620.69427    
     32800  -84486.577      473.21166     -84013.365      194.4316       194.03245      620.961      
     32900  -84453.758      472.4802      -83981.278      194.4149       194.01165      621.22774    
     33000  -84415.314      475.50069     -83939.813      194.39549      193.98779      621.49448    
     33100  -84379.523      476.36894     -83903.154      194.37496      193.96168      621.76121    
     33200  -84352.582      483.3127      -83869.27       194.3586       193.94         622.02795    
     33300  -84317.388      479.30222     -83838.086      194.34005      193.91626      622.29468    
     33400  -84285.271      473.43329     -83811.838      194.31907      193.8897       622.56142    
     33500  -84254.943      471.67256     -83783.27       194.30263      193.86752      622.82815    
     33600  -84219.115      475.40769     -83743.708      194.28455      193.84459      623.09489    
     33700  -84182.749      477.41641     -83705.333      194.26334      193.81873      623.36163    
     33800  -84150.088      478.37978     -83671.708      194.2455       193.79584      623.62836    
     33900  -84120.27       482.65226     -83637.618      194.22778      193.77312      623.8951     
     34000  -84081.76       477.44868     -83604.311      194.20714      193.74862      624.16183    
     34100  -84047.888      475.77808     -83572.11       194.18793      193.72597      624.42857    
     34200  -84014.489      472.14627     -83542.343      194.17006      193.70441      624.69531    
     34300  -83987.783      476.25696     -83511.527      194.14842      193.67991      624.96204    
     34400  -83948.855      475.28981     -83473.565      194.12699      193.65739      625.22878    
     34500  -83914.773      481.45589     -83433.317      194.10906      193.6376       625.49551    
     34600  -83878.568      478.37596     -83400.192      194.08739      193.61455      625.76225    
     34700  -83852.8        482.69249     -83370.107      194.06415      193.5913       626.02898    
     34800  -83815.098      471.69504     -83343.403      194.04455      193.572        626.29572    
     34900  -83787.484      470.72277     -83316.761      194.02279      193.55084      626.56246    
     35000  -83753.338      476.88176     -83276.456      193.9986       193.5276       626.82919    
     35100  -83713.427      476.34288     -83237.084      193.97775      193.50879      627.09593    
     35200  -83678.27       478.5676      -83199.703      193.95503      193.48903      627.36266    
     35300  -83640.897      478.15116     -83162.746      193.92977      193.46593      627.6294     
     35400  -83612.749      483.90425     -83128.845      193.90793      193.44727      627.89614    
     35500  -83579.454      478.45822     -83100.995      193.88454      193.42832      628.16287    
     35600  -83546.781      473.39599     -83073.385      193.85783      193.40544      628.42961    
     35700  -83509.484      472.57777     -83036.906      193.83438      193.3857       628.69634    
     35800  -83475.382      478.7375      -82996.645      193.81132      193.36741      628.96308    
     35900  -83435.752      474.09634     -82961.655      193.78401      193.34493      629.22981    
     36000  -83403.671      477.50488     -82926.166      193.75962      193.32464      629.49655    
     36100  -83367.492      477.54342     -82889.948      193.73714      193.30671      629.76329    
     36200  -83334.921      480.62211     -82854.299      193.71058      193.28486      630.03002    
     36300  -83304.452      481.22117     -82823.231      193.68542      193.264        630.29676    
     36400  -83278.827      481.87526     -82796.952      193.66284      193.24568      630.56349    
     36500  -83238.961      474.88894     -82764.072      193.63615      193.22284      630.83023    
     36600  -83205.125      481.32284     -82723.802      193.61125      193.20235      631.09697    
     36700  -83164.816      479.35216     -82685.464      193.5889       193.1834       631.3637     
     36800  -83130.871      478.78794     -82652.083      193.5628       193.15998      631.63044    
     36900  -83098.217      477.7785      -82620.439      193.53794      193.13813      631.89717    
     37000  -83066.895      478.36004     -82588.535      193.51632      193.11935      632.16391    
     37100  -83035.768      479.02092     -82556.747      193.4917       193.09599      632.43064    
     37200  -82997.405      477.29838     -82520.107      193.4675       193.07277      632.69738    
     37300  -82958.423      478.73775     -82479.685      193.44736      193.05391      632.96412    
     37400  -82920.421      478.65864     -82441.763      193.42305      193.02932      633.23085    
     37500  -82893.144      482.61272     -82410.532      193.40028      193.00569      633.49759    
     37600  -82853.213      468.07592     -82385.137      193.38086      192.98595      633.76432    
     37700  -82829.366      478.88425     -82350.482      193.35814      192.96168      634.03106    
     37800  -82788.52       476.21508     -82312.305      193.33664      192.93793      634.2978     
     37900  -82746.763      473.93481     -82272.829      193.31797      192.91676      634.56453    
     38000  -82717.296      481.16071     -82236.135      193.2971       192.89324      634.83127    
     38100  -82678.686      476.8649      -82201.821      193.27589      192.86853      635.098      
     38200  -82645.345      472.31566     -82173.029      193.25893      192.84729      635.36474    
     38300  -82617.846      471.45188     -82146.394      193.2394       192.82385      635.63147    
     38400  -82580.215      473.19242     -82107.022      193.21881      192.79937      635.89821    
     38500  -82541.737      476.04545     -82065.691      193.20202      192.77741      636.16495    
     38600  -82510.221      482.70495     -82027.516      193.18367      192.75407      636.43168    
     38700  -82468.133      477.51311     -81990.62       193.16421      192.7305       636.69842    
     38800  -82434.777      479.46303     -81955.314      193.14715      192.70856      636.96515    
     38900  -82404.38       480.29162     -81924.088      193.12878      192.68495      637.23189    
     39000  -82370.148      476.00146     -81894.146      193.10968      192.66109      637.49863    
     39100  -82331.816      474.11722     -81857.699      193.09242      192.63982      637.76536    
     39200  -82293.134      478.27926     -81814.855      193.07475      192.61721      638.0321     
     39300  -82258.777      480.84913     -81777.928      193.05544      192.59355      638.29883    
     39400  -82222.365      478.63319     -81743.731      193.03709      192.572        638.56557    
     39500  -82188.919      477.73406     -81711.185      193.01888      192.54991      638.8323     
     39600  -82156.132      472.18703     -81683.945      192.99982      192.52722      639.09904    
     39700  -82123.446      471.55022     -81651.896      192.98161      192.50609      639.36578    
     39800  -82083.698      475.27455     -81608.423      192.96169      192.48439      639.63251    
     39900  -82047.469      478.42578     -81569.043      192.94179      192.4618       639.89925    
     40000  -82007.436      476.34576     -81531.09       192.92381      192.44218      640.16598    
     40100  -81973.581      480.60144     -81492.979      192.90351      192.42121      640.43272    
     40200  -81935.133      476.93676     -81458.196      192.88261      192.39917      640.69946    
     40300  -81905.43       475.57119     -81429.859      192.86345      192.37965      640.96619    
     40400  -81872.92       473.8568      -81399.063      192.84373      192.36076      641.23293    
     40500  -81833.785      472.66964     -81361.115      192.82204      192.33974      641.49966    
     40600  -81799.626      481.6634      -81317.963      192.80163      192.32019      641.7664     
     40700  -81763.399      481.59244     -81281.807      192.78162      192.30239      642.03313    
     40800  -81721.386      473.68901     -81247.697      192.75874      192.28172      642.29987    
     40900  -81690.943      476.34599     -81214.597      192.73757      192.26259      642.56661    
     41000  -81658.669      476.40511     -81182.264      192.71748      192.24535      642.83334    
     41100  -81618.182      470.75836     -81147.424      192.69505      192.22667      643.10008    
     41200  -81587.291      481.35704     -81105.934      192.67331      192.20793      643.36681    
     41300  -81546.243      480.74504     -81065.498      192.65356      192.19151      643.63355    
     41400  -81515.135      482.37436     -81032.76       192.63191      192.17465      643.90029    
     41500  -81480.262      476.68297     -81003.579      192.60826      192.15533      644.16702    
     41600  -81441.571      471.32312     -80970.248      192.58863      192.13967      644.43376    
     41700  -81408.457      476.16332     -80932.293      192.56774      192.12286      644.70049    
     41800  -81368.472      474.70494     -80893.767      192.54474      192.10474      644.96723    
     41900  -81334.483      479.27454     -80855.209      192.52484      192.08884      645.23396    
     42000  -81295.775      477.94981     -80817.825      192.50491      192.07274      645.5007     
     42100  -81257.559      476.70642     -80780.853      192.48303      192.05523      645.76744    
     42200  -81230.046      483.27        -80746.776      192.4632       192.03915      646.03417    
     42300  -81195.037      478.18949     -80716.847      192.44451      192.02376      646.30091    
     42400  -81156.834      473.06044     -80683.774      192.42364      192.00611      646.56764    
     42500  -81121.644      478.86468     -80642.779      192.40419      191.9901       646.83438    
     42600  -81080.038      481.18264     -80598.856      192.38666      191.97527      647.10112    
     42700  -81046.484      482.10362     -80564.38       192.36693      191.95789      647.36785    
     42800  -81010.017      477.56884     -80532.448      192.34766      191.9408       647.63459    
     42900  -80979.897      480.74107     -80499.156      192.33105      191.92583      647.90132    
     43000  -80940.623      477.08984     -80463.533      192.31352      191.90935      648.16806    
     43100  -80902.201      479.80502     -80422.396      192.29485      191.89185      648.43479    
     43200  -80859.116      478.04367     -80381.072      192.27803      191.87565      648.70153    
     43300  -80826.886      481.53439     -80345.352      192.26232      191.85914      648.96827    
     43400  -80795.751      478.933       -80316.818      192.24558      191.84191      649.235      
     43500  -80757.467      474.59582     -80282.871      192.22871      191.82438      649.50174    
     43600  -80718.85       475.46435     -80243.386      192.21364      191.80762      649.76847    
     43700  -80685.944      481.44697     -80204.497      192.19789      191.78988      650.03521    
     43800  -80641.889      474.39315     -80167.496      192.18189      191.77198      650.30195    
     43900  -80610.26       479.28445     -80130.976      192.16761      191.75463      650.56868    
     44000  -80572.845      479.29867     -80093.546      192.152        191.73566      650.83542    
     44100  -80536.733      481.62038     -80055.113      192.13625      191.71731      651.10215    
     44200  -80502.172      482.33072     -80019.842      192.12208      191.69959      651.36889    
     44300  -80464.083      474.75272     -79989.33       192.10708      191.68021      651.63562    
     44400  -80430.591      474.33427     -79956.257      192.09144      191.66122      651.90236    
     44500  -80398.208      481.81499     -79916.393      192.07799      191.6439       652.1691     
     44600  -80352.886      482.29274     -79870.593      192.06312      191.62472      652.43583    
     44700  -80315.804      480.90537     -79834.899      192.04733      191.60512      652.70257    
     44800  -80278.541      474.99662     -79803.545      192.03383      191.58754      652.9693     
     44900  -80245.436      476.91535     -79768.521      192.01858      191.56832      653.23604    
     45000  -80208.516      478.36052     -79730.156      192.00306      191.54856      653.50277    
     45100  -80162.687      478.26367     -79684.424      191.98913      191.53118      653.76951    
     45200  -80129.745      486.26992     -79643.475      191.97511      191.51376      654.03625    
     45300  -80095.316      481.93806     -79613.378      191.95927      191.49428      654.30298    
     45400  -80056.498      473.19592     -79583.302      191.94418      191.47642      654.56972    
     45500  -80026.512      475.54059     -79550.971      191.93044      191.45996      654.83645    
     45600  -79990.882      474.8099      -79516.072      191.91484      191.44106      655.10319    
     45700  -79952.344      474.55889     -79477.785      191.89935      191.42362      655.36993    
     45800  -79915.199      482.50133     -79432.698      191.88458      191.4077       655.63666    
     45900  -79876.526      482.38429     -79394.141      191.86898      191.39         655.9034     
     46000  -79843.187      478.95506     -79364.232      191.85293      191.37208      656.17013    
     46100  -79808.73       477.61232     -79331.117      191.83823      191.35725      656.43687    
     46200  -79768.872      474.98703     -79293.885      191.82333      191.3414       656.7036     
     46300  -79732.298      478.08181     -79254.216      191.80678      191.32408      656.97034    
     46400  -79695.265      481.45264     -79213.812      191.79196      191.31024      657.23708    
     46500  -79659.528      484.00345     -79175.525      191.77707      191.29607      657.50381    
     46600  -79625.106      478.7938      -79146.313      191.75999      191.27958      657.77055    
     46700  -79592.452      478.88121     -79113.571      191.74466      191.26595      658.03728    
     46800  -79551.116      475.24078     -79075.875      191.72985      191.25361      658.30402    
     46900  -79514.208      482.58071     -79031.627      191.71251      191.23755      658.57076    
     47000  -79469.484      480.31611     -78989.168      191.6962       191.22372      658.83749    
     47100  -79433.423      478.51303     -78954.91       191.68206      191.2132       659.10423    
     47200  -79398.458      476.2224      -78922.235      191.66494      191.1986       659.37096    
     47300  -79366.145      478.17743     -78887.968      191.64774      191.18441      659.6377     
     47400  -79330.857      478.66135     -78852.195      191.63364      191.17479      659.90443    
     47500  -79287.709      473.37428     -78814.335      191.61648      191.1612       660.17117    
     47600  -79251.878      478.56589     -78773.312      191.59863      191.14687      660.43791    
     47700  -79214.34       482.33668     -78732.003      191.5837       191.13638      660.70464    
     47800  -79175.542      479.77278     -78695.77       191.56718      191.12425      660.97138    
     47900  -79138.848      473.22494     -78665.623      191.54976      191.1102       661.23811    
     48000  -79103.72       473.22479     -78630.496      191.53493      191.09941      661.50485    
     48100  -79066.649      476.10512     -78590.544      191.5188       191.08774      661.77159    
     48200  -79027.512      478.24776     -78549.264      191.49995      191.07257      662.03832    
     48300  -78989.546      481.3813      -78508.165      191.48524      191.06099      662.30506    
     48400  -78949.96       485.65945     -78464.301      191.46926      191.04919      662.57179    
     48500  -78912.184      478.88173     -78433.302      191.45102      191.03406      662.83853    
     48600  -78884.733      482.10477     -78402.628      191.43565      191.02138      663.10526    
     48700  -78845.31       476.43222     -78368.877      191.42087      191.00951      663.372      
     48800  -78811.26       477.84288     -78333.417      191.40294      190.99405      663.63874    
     48900  -78769.452      475.68326     -78293.768      191.38748      190.97981      663.90547    
     49000  -78728.613      481.33597     -78247.277      191.37401      190.968        664.17221    
     49100  -78691.799      483.61223     -78208.187      191.35689      190.95201      664.43894    
     49200  -78656.083      478.86127     -78177.222      191.34072      190.93623      664.70568    
     49300  -78621.385      479.37126     -78142.013      191.32764      190.92365      664.97242    
     49400  -78584.649      478.19891     -78106.451      191.31101      190.90725      665.23915    
     49500  -78548.432      476.18778     -78072.244      191.29546      190.89108      665.50589    
     49600  -78508.336      470.67788     -78037.658      191.2828       190.87754      665.77262    
     49700  -78473.718      470.40561     -78003.312      191.2677       190.86152      666.03936    
     49800  -78436.335      474.04602     -77962.289      191.25205      190.84441      666.30609    
     49900  -78398          482.50117     -77915.498      191.23888      190.82902      666.57283    
     50000  -78356.282      480.11122     -77876.171      191.22537      190.81314      666.83957    
     50100  -78321.402      478.96432     -77842.438      191.21066      190.79609      667.1063     
     50200  -78286.538      476.44265     -77810.095      191.19787      190.77982      667.37304    
     50300  -78250.086      478.17442     -77771.911      191.18522      190.76366      667.63977    
     50400  -78211.722      478.50511     -77733.217      191.1715       190.74627      667.90651    
     50500  -78176.604      482.46849     -77694.136      191.15968      190.73051      668.17325    
     50600  -78137.821      478.20363     -77659.617      191.14779      190.71407      668.43998    
     50700  -78097.931      470.79547     -77627.136      191.13429      190.697        668.70672    
     50800  -78062.843      473.69764     -77589.145      191.12234      190.681        668.97345    
     50900  -78021.709      477.31888     -77544.39       191.11083      190.66459      669.24019    
     51000  -77980.909      481.46855     -77499.441      191.09776      190.64736      669.50692    
     51100  -77946.204      482.61869     -77463.585      191.08542      190.63178      669.77366    
     51200  -77905.429      476.7729      -77428.656      191.074        190.61595      670.0404     
     51300  -77870.631      476.75936     -77393.871      191.06193      190.59948      670.30713    
     51400  -77833.806      475.69278     -77358.113      191.04882      190.58421      670.57387    
     51500  -77798.609      477.49135     -77321.118      191.0368       190.56851      670.8406     
     51600  -77758.357      475.1442      -77283.213      191.02413      190.55216      671.10734    
     51700  -77722.115      472.26262     -77249.852      191.01138      190.53751      671.37408    
     51800  -77684.189      471.51696     -77212.672      190.99885      190.52242      671.64081    
     51900  -77644.683      476.48552     -77168.197      190.98595      190.50666      671.90755    
     52000  -77602.185      478.31851     -77123.866      190.97237      190.4917       672.17428    
     52100  -77566.49       479.9118      -77086.578      190.95873      190.47699      672.44102    
     52200  -77527.197      471.19863     -77055.998      190.94524      190.4614       672.70775    
     52300  -77491.945      472.37289     -77019.572      190.93223      190.44777      672.97449    
     52400  -77454.481      475.33902     -76979.142      190.91773      190.43375      673.24123    
     52500  -77415.335      477.6719      -76937.663      190.90214      190.41779      673.50796    
     52600  -77381.475      483.43822     -76898.037      190.88792      190.40374      673.7747     
     52700  -77343.322      478.44336     -76864.879      190.87327      190.39056      674.04143    
     52800  -77302.005      471.31962     -76830.686      190.85675      190.37546      674.30817    
     52900  -77268.983      478.34645     -76790.636      190.84194      190.36154      674.57491    
     53000  -77222.702      475.60936     -76747.093      190.82627      190.34816      674.84164    
     53100  -77177.4        478.66602     -76698.734      190.80947      190.33355      675.10838    
     53200  -77148.476      486.13583     -76662.341      190.79379      190.32003      675.37511    
     53300  -77111.605      481.42848     -76630.176      190.77795      190.30702      675.64185    
     53400  -77081.209      484.87252     -76596.337      190.76076      190.29294      675.90858    
     53500  -77040.598      478.01971     -76562.578      190.74355      190.27902      676.17532    
     53600  -77004.47       478.33302     -76526.137      190.72758      190.26632      676.44206    
     53700  -76967.81       480.27645     -76487.533      190.70937      190.25194      676.70879    
     53800  -76923.275      475.99273     -76447.282      190.69168      190.23799      676.97553    
     53900  -76888.058      483.72725     -76404.33       190.67591      190.22549      677.24226    
     54000  -76850.579      486.77133     -76363.808      190.65761      190.2112       677.509      
     54100  -76812.468      480.56726     -76331.901      190.63933      190.19727      677.77574    
     54200  -76771.709      475.68578     -76296.023      190.62449      190.18514      678.04247    
     54300  -76736.589      477.79109     -76258.798      190.60702      190.17165      678.30921    
     54400  -76697.285      475.87689     -76221.408      190.58729      190.15598      678.57594    
     54500  -76661.072      474.66444     -76186.408      190.57213      190.14348      678.84268    
     54600  -76629.375      476.27487     -76153.1        190.55677      190.13072      679.10941    
     54700  -76588.953      478.72142     -76110.232      190.53765      190.11506      679.37615    
     54800  -76541.813      478.29324     -76063.52       190.52047      190.10015      679.64289    
     54900  -76503.295      480.30878     -76022.986      190.50698      190.08852      679.90962    
     55000  -76470.23       483.59828     -75986.632      190.48913      190.07331      680.17636    
     55100  -76426.595      476.09708     -75950.498      190.4712       190.05697      680.44309    
     55200  -76393.384      481.4594      -75911.925      190.45846      190.04524      680.70983    
     55300  -76353.082      478.07008     -75875.012      190.44246      190.03101      680.97657    
     55400  -76318.741      473.53685     -75845.205      190.42461      190.01408      681.2433     
     55500  -76281.977      477.14616     -75804.831      190.41129      190.0011       681.51004    
     55600  -76236.582      476.75239     -75759.83       190.39767      189.98768      681.77677    
     55700  -76192.84       477.56282     -75715.277      190.37908      189.96938      682.04351    
     55800  -76155.938      480.38807     -75675.55       190.36611      189.95544      682.31024    
     55900  -76124.537      478.94924     -75645.587      190.35393      189.94199      682.57698    
     56000  -76088.483      481.52424     -75606.959      190.33663      189.92376      682.84372    
     56100  -76039.883      475.38446     -75564.499      190.32264      189.90793      683.11045    
     56200  -75998.831      477.75801     -75521.073      190.31057      189.89348      683.37719    
     56300  -75961.815      478.17508     -75483.64       190.29472      189.87537      683.64392    
     56400  -75926.91       476.30902     -75450.601      190.28009      189.85859      683.91066    
     56500  -75891.848      481.10028     -75410.748      190.26792      189.84356      684.17739    
     56600  -75850.507      480.0244      -75370.482      190.2526       189.82537      684.44413    
     56700  -75809.256      473.8281      -75335.428      190.23741      189.80733      684.71087    
     56800  -75779.373      479.47206     -75299.901      190.22554      189.79183      684.9776     
     56900  -75736.787      479.0395      -75257.747      190.21126      189.77438      685.24434    
     57000  -75693.948      480.41627     -75213.532      190.19379      189.75441      685.51107    
     57100  -75655.295      483.82824     -75171.467      190.18135      189.73812      685.77781    
     57200  -75613.442      481.35199     -75132.09       190.16846      189.72204      686.04455    
     57300  -75571.777      476.91262     -75094.864      190.15042      189.70124      686.31128    
     57400  -75536.518      477.7395      -75058.779      190.1368       189.68434      686.57802    
     57500  -75501.097      479.84161     -75021.255      190.12448      189.66804      686.84475    
     57600  -75461.959      479.92375     -74982.036      190.10709      189.64776      687.11149    
     57700  -75420.635      478.49504     -74942.14       190.09209      189.6303       687.37822    
     57800  -75381.897      474.52578     -74907.372      190.07939      189.61427      687.64496    
     57900  -75342.827      470.92264     -74871.904      190.06241      189.59424      687.9117     
     58000  -75300.569      474.09956     -74826.47       190.0458       189.57604      688.17843    
     58100  -75259.803      480.94139     -74778.861      190.03168      189.55972      688.44517    
     58200  -75216.587      475.57614     -74741.011      190.01487      189.53998      688.7119     
     58300  -75186.862      481.13542     -74705.727      189.99876      189.52244      688.97864    
     58400  -75142.616      475.90833     -74666.707      189.98367      189.50652      689.24538    
     58500  -75107.554      477.60318     -74629.951      189.96649      189.48748      689.51211    
     58600  -75069.782      479.22195     -74590.56       189.94986      189.46985      689.77885    
     58700  -75031.248      480.47843     -74550.769      189.93494      189.4547       690.04558    
     58800  -74992.655      477.04202     -74515.613      189.91716      189.43635      690.31232    
     58900  -74951.025      474.20369     -74476.821      189.90026      189.41891      690.57905    
     59000  -74905.753      474.2335      -74431.52       189.88511      189.40466      690.84579    
     59100  -74867.777      479.36841     -74388.408      189.86678      189.3869       691.11253    
     59200  -74830.201      479.43086     -74350.77       189.84871      189.36981      691.37926    
     59300  -74791.46       477.38711     -74314.073      189.83292      189.35559      691.646      
     59400  -74751.107      478.77714     -74272.33       189.81536      189.33963      691.91273    
     59500  -74709.186      478.98931     -74230.197      189.79691      189.323        692.17947    
     59600  -74669.94       478.08378     -74191.856      189.77989      189.30859      692.44621    
     59700  -74628.893      475.46306     -74153.43       189.76136      189.29267      692.71294    
     59800  -74589.365      479.11732     -74110.248      189.74286      189.27642      692.97968    
     59900  -74550.119      482.70481     -74067.414      189.72582      189.26194      693.24641    
     60000  -74511.94       482.43202     -74029.508      189.70713      189.24664      693.51315    
     60100  -74466.231      476.17007     -73990.061      189.68853      189.23069      693.77988    
     60200  -74425.323      477.76575     -73947.557      189.67149      189.21671      694.04662    
     60300  -74383.039      476.83822     -73906.201      189.65255      189.20135      694.31336    
     60400  -74343.302      477.72024     -73865.582      189.63337      189.18555      694.58009    
     60500  -74306.875      483.49275     -73823.382      189.61618      189.17148      694.84683    
     60600  -74264.397      482.06157     -73782.335      189.59727      189.15548      695.11356    
     60700  -74224.516      481.33554     -73743.18       189.57764      189.13993      695.3803     
     60800  -74180.515      477.87825     -73702.637      189.55986      189.12475      695.64704    
     60900  -74140.113      478.07669     -73662.036      189.54151      189.10913      695.91377    
     61000  -74101.314      480.70555     -73620.608      189.52132      189.09245      696.18051    
     61100  -74061.342      482.329       -73579.013      189.50343      189.07721      696.44724    
     61200  -74015.126      478.565       -73536.561      189.48575      189.0616       696.71398    
     61300  -73974.957      479.9637      -73494.993      189.46507      189.04362      696.98071    
     61400  -73935.624      481.40189     -73454.222      189.44765      189.0284       697.24745    
     61500  -73895.635      482.11715     -73413.518      189.42954      189.01192      697.51419    
     61600  -73851.323      480.01077     -73371.312      189.40954      188.99332      697.78092    
     61700  -73811.445      482.08308     -73329.362      189.39215      188.97776      698.04766    
     61800  -73773.194      485.32325     -73287.87       189.37354      188.96051      698.31439    
     61900  -73722.748      477.11961     -73245.629      189.35366      188.94182      698.58113    
     62000  -73681.023      477.86797     -73203.155      189.33634      188.92526      698.84787    
     62100  -73644.586      482.7101      -73161.876      189.31886      188.90812      699.1146     
     62200  -73597.782      477.14654     -73120.636      189.29931      188.88899      699.38134    
     62300  -73560.223      481.89169     -73078.331      189.2821       188.87175      699.64807    
     62400  -73516.634      480.05363     -73036.58       189.26481      188.85427      699.91481    
     62500  -73476.569      482.70879     -72993.861      189.24568      188.83446      700.18154    
     62600  -73432.145      481.29725     -72950.848      189.22902      188.81725      700.44828    
     62700  -73390.501      481.97537     -72908.526      189.21193      188.79979      700.71502    
     62800  -73343.06       478.07408     -72864.986      189.19368      188.78024      700.98175    
     62900  -73304.979      483.41332     -72821.565      189.17668      188.76164      701.24849    
     63000  -73260.246      481.95008     -72778.296      189.16041      188.7443       701.51522    
     63100  -73216.955      481.47586     -72735.479      189.14361      188.726        701.78196    
     63200  -73176.548      484.63347     -72691.914      189.12641      188.70654      702.0487     
     63300  -73130.767      481.20536     -72649.561      189.11062      188.68875      702.31543    
     63400  -73086.486      480.50964     -72605.976      189.09426      188.66992      702.58217    
     63500  -73044.925      483.14206     -72561.783      189.07759      188.65103      702.8489     
     63600  -72992.979      476.69412     -72516.285      189.06178      188.63226      703.11564    
     63700  -72955.942      484.32367     -72471.619      189.04567      188.61318      703.38237    
     63800  -72907.204      480.79031     -72426.413      189.03075      188.59482      703.64911    
     63900  -72859.813      478.0623      -72381.75       189.01455      188.5756       703.91585    
     64000  -72820.545      482.72875     -72337.816      188.99911      188.55705      704.18258    
     64100  -72776.777      483.29101     -72293.486      188.98489      188.53933      704.44932    
     64200  -72728.682      479.50216     -72249.18       188.96737      188.51918      704.71605    
     64300  -72689.914      485.47386     -72204.44       188.95166      188.50065      704.98279    
     64400  -72642.714      482.6796      -72160.034      188.93771      188.48385      705.24953    
     64500  -72596.725      482.78053     -72113.944      188.91995      188.46362      705.51626    
     64600  -72548.632      480.07848     -72068.554      188.90427      188.44526      705.783      
     64700  -72506.844      484.23094     -72022.613      188.89025      188.42847      706.04973    
     64800  -72456.818      480.1521      -71976.666      188.87242      188.40817      706.31647    
     64900  -72411.182      481.42191     -71929.76       188.8555       188.38938      706.5832     
     65000  -72365.654      482.58305     -71883.071      188.84211      188.37363      706.84994    
     65100  -72316.495      479.28673     -71837.208      188.82385      188.35356      707.11668    
     65200  -72277.539      486.49675     -71791.042      188.80618      188.3348       707.38341    
     65300  -72224.676      480.38719     -71744.289      188.79229      188.31936      707.65015    
     65400  -72177.232      481.38399     -71695.848      188.77321      188.29924      707.91688    
     65500  -72130.179      481.52748     -71648.651      188.75598      188.28126      708.18362    
     65600  -72085.449      484.28433     -71601.165      188.74203      188.26707      708.45036    
     65700  -72035.285      481.84351     -71553.441      188.72186      188.24726      708.71709    
     65800  -71986.71       480.66357     -71506.047      188.70505      188.23015      708.98383    
     65900  -71939.23       480.53469     -71458.696      188.69043      188.21549      709.25056    
     66000  -71896.245      484.35864     -71411.887      188.67004      188.19629      709.5173     
     66100  -71844.045      480.25689     -71363.788      188.65322      188.18018      709.78403    
     66200  -71796.278      479.83348     -71316.445      188.638        188.16565      710.05077    
     66300  -71750.357      482.92442     -71267.432      188.61861      188.14736      710.31751    
     66400  -71701.591      483.12659     -71218.464      188.60177      188.13195      710.58424    
     66500  -71650.707      482.47796     -71168.229      188.58563      188.11761      710.85098    
     66600  -71599.44       480.75478     -71118.686      188.56577      188.09952      711.11771    
     66700  -71554.086      484.12551     -71069.96       188.55034      188.0861       711.38445    
     66800  -71503.97       482.40846     -71021.562      188.53428      188.07207      711.65119    
     66900  -71452.27       480.76752     -70971.503      188.51415      188.05459      711.91792    
     67000  -71402.364      481.24814     -70921.115      188.49902      188.04205      712.18466    
     67100  -71349.238      478.06818     -70871.17       188.48263      188.02784      712.45139    
     67200  -71299.357      479.29444     -70820.063      188.4635       188.01134      712.71813    
     67300  -71256.242      487.33631     -70768.906      188.44856      187.99916      712.98486    
     67400  -71195.913      479.16297     -70716.75       188.43158      187.98466      713.2516     
     67500  -71147.298      482.71782     -70664.58       188.41416      187.9698       713.51834    
     67600  -71093.138      479.60652     -70613.532      188.40011      187.95816      713.78507    
     67700  -71043.413      481.52074     -70561.892      188.38245      187.943        714.05181    
     67800  -70992.166      481.99476     -70510.171      188.36546      187.92872      714.31854    
     67900  -70941.603      483.96702     -70457.636      188.35133      187.91718      714.58528    
     68000  -70888.322      482.80432     -70405.518      188.33421      187.90233      714.85202    
     68100  -70834.264      482.0132      -70352.25       188.31861      187.88897      715.11875    
     68200  -70785.746      485.1581      -70300.588      188.30416      187.87663      715.38549    
     68300  -70733.775      485.66191     -70248.113      188.28775      187.8623       715.65222    
     68400  -70679.308      483.73866     -70195.569      188.27255      187.84899      715.91896    
     68500  -70623.914      481.05469     -70142.859      188.25885      187.83671      716.18569    
     68600  -70568.497      480.5315      -70087.965      188.24258      187.8221       716.45243    
     68700  -70517.354      486.02434     -70031.329      188.22816      187.80939      716.71917    
     68800  -70464.849      488.12376     -69976.725      188.21444      187.7966       716.9859     
     68900  -70404.671      483.10229     -69921.568      188.19917      187.78197      717.25264    
     69000  -70350.886      483.48251     -69867.404      188.18546      187.76918      717.51937    
     69100  -70298.637      486.60439     -69812.033      188.17194      187.75649      717.78611    
     69200  -70243.766      486.6817      -69757.084      188.15726      187.74222      718.05284    
     69300  -70185.954      484.21205     -69701.742      188.14497      187.72987      718.31958    
     69400  -70129.973      481.2041      -69648.768      188.13165      187.71646      718.58632    
     69500  -70078.758      484.46501     -69594.293      188.11688      187.7017       718.85305    
     69600  -70019.482      481.26476     -69538.217      188.10577      187.69021      719.11979    
     69700  -69966.083      483.92307     -69482.16       188.09231      187.67597      719.38652    
     69800  -69909.042      484.09071     -69424.952      188.07922      187.66174      719.65326    
     69900  -69853.941      485.60616     -69368.334      188.06876      187.65048      719.92       
     70000  -69793.124      482.25855     -69310.865      188.05532      187.63601      720.18673    
     70100  -69737.676      483.05727     -69254.619      188.04372      187.62278      720.45347    
     70200  -69681.586      485.72228     -69195.864      188.03362      187.61086      720.7202     
     70300  -69628.214      490.72231     -69137.492      188.02047      187.59623      720.98694    
     70400  -69561.621      482.53812     -69079.083      188.00985      187.58381      721.25367    
     70500  -69506.961      487.33837     -69019.623      188.00004      187.57196      721.52041    
     70600  -69444.286      484.13965     -68960.146      187.98835      187.55823      721.78715    
     70700  -69389.752      485.83015     -68903.921      187.97813      187.54573      722.05388    
     70800  -69336.138      488.77797     -68847.36       187.96855      187.534        722.32062    
     70900  -69274.614      488.77149     -68785.842      187.95741      187.52095      722.58735    
     71000  -69215.876      488.62771     -68727.248      187.94749      187.50876      722.85409    
     71100  -69151.376      482.31673     -68669.06       187.9385       187.49716      723.12083    
     71200  -69098.79       489.59879     -68609.191      187.92811      187.48461      723.38756    
     71300  -69039.011      491.78801     -68547.223      187.91778      187.4725       723.6543     
     71400  -68974.822      492.35823     -68482.463      187.90888      187.4614       723.92103    
     71500  -68918.456      496.69513     -68421.761      187.89953      187.44914      724.18777    
     71600  -68851.981      491.24024     -68360.741      187.88938      187.43722      724.4545     
     71700  -68790.677      492.66939     -68298.007      187.88001      187.4266       724.72124    
     71800  -68728.169      491.7634      -68236.406      187.87069      187.41502      724.98798    
     71900  -68667.707      494.4951      -68173.212      187.86162      187.40356      725.25471    
     72000  -68612.998      500.63236     -68112.366      187.85203      187.39269      725.52145    
     72100  -68547.594      499.14605     -68048.448      187.84211      187.38189      725.78818    
     72200  -68482.842      494.40949     -67988.433      187.83301      187.37118      726.05492    
     72300  -68417.942      496.19402     -67921.748      187.82377      187.36013      726.32166    
     72400  -68354.421      493.4783      -67860.943      187.8134       187.34911      726.58839    
     72500  -68296.173      497.70714     -67798.466      187.80404      187.33962      726.85513    
     72600  -68237.521      500.07283     -67737.448      187.79434      187.32884      727.12186    
[...]
     81600  -88824.949      582.3733      -88242.576      188.69124      188.35035      751.12809    
     81700  -89020.256      573.81166     -88446.444      188.71126      188.37184      751.39482    
     81800  -89205.703      564.66033     -88641.042      188.7313       188.39329      751.66156    
     81900  -89382.462      556.03516     -88826.427      188.75115      188.41447      751.92829    
     82000  -89549.721      547.15695     -89002.564      188.77122      188.4358       752.19503    
     82100  -89708.29       538.88211     -89169.408      188.79139      188.45715      752.46177    
     82200  -89857.518      530.65912     -89326.859      188.81155      188.47841      752.7285     
     82300  -89997.425      522.63979     -89474.785      188.83204      188.49995      752.99524    
     82400  -90127.888      514.87305     -89613.015      188.85271      188.52158      753.26197    
     82500  -90248.765      507.42958     -89741.335      188.87358      188.54334      753.52871    
     82600  -90359.802      500.34052     -89859.461      188.8949       188.56548      753.79545    
     82700  -90460.702      493.67206     -89967.03       188.91652      188.58787      754.06218    
     82800  -90551.071      487.49401     -90063.577      188.93857      188.61061      754.32892    
     82900  -90630.518      482.00809     -90148.51       188.96121      188.63392      754.59565    
     83000  -90699.25       478.00365     -90221.246      188.98392      188.65725      754.86239    
     83100  -90758.274      476.04021     -90282.234      189.0063       188.68021      755.12912    
     83200  -90807.271      474.46244     -90332.809      189.02876      188.7032       755.39586    
     83300  -90846.144      472.86845     -90373.275      189.05134      188.72637      755.6626     
     83400  -90874.73       471.82514     -90402.905      189.0742       188.74981      755.92933    
     83500  -90893.033      471.85973     -90421.173      189.0971       188.77332      756.19607    
     83600  -90900.947      472.33843     -90428.608      189.11994      188.79685      756.4628     
     83700  -90898.285      472.20743     -90426.077      189.14278      188.82057      756.72954    
     83800  -90883.976      470.70735     -90413.268      189.16418      188.84305      756.99628    
     83900  -90856.459      468.56579     -90387.893      189.1837       188.86381      757.26301    
     84000  -90814.611      467.0203      -90347.59       189.20345      188.88493      757.52975    
     84100  -90757.697      464.93209     -90292.765      189.22177      188.90467      757.79648    
     84200  -90686.056      460.71063     -90225.346      189.2395       188.92367      758.06322    
     84300  -90599.595      453.36506     -90146.23       189.25739      188.94259      758.32995    
     84400  -90496.799      441.68788     -90055.111      189.27368      188.95969      758.59669    
     84500  -90378.316      426.46259     -89951.854      189.29083      188.97748      758.86343    
     84600  -90244.593      406.1057      -89838.487      189.30676      188.99387      759.13016    
     84700  -90097.549      379.41252     -89718.137      189.32222      189.00955      759.3969     
     84800  -89945.651      351.14707     -89594.504      189.33793      189.02509      759.66363    
     84900  -89868.004      403.54889     -89464.455      189.34903      189.03536      759.93037    
     85000  -89828.001      489.11848     -89338.882      189.33876      189.02292      760.19711    
     85100  -89857.901      572.3353      -89285.566      189.33613      189.01532      760.46384    
     85200  -89945.931      534.7273      -89411.204      189.33628      189.01271      760.73058    
     85300  -90032.718      480.83974     -89551.879      189.34995      189.02637      760.99731    
     85400  -90084.903      450.25607     -89634.647      189.35662      189.02904      761.26405    
     85500  -90102.422      447.22256     -89655.199      189.36242      189.02739      761.53078    
     85600  -90090.135      468.73829     -89621.397      189.37607      189.03757      761.79752    
     85700  -90069.6        491.70335     -89577.897      189.3914       189.05225      762.06426    
     85800  -90049.615      490.55565     -89559.059      189.40129      189.06604      762.33099    
     85900  -90072.151      499.8599      -89572.292      189.41824      189.08027      762.59773    
     86000  -90082.401      469.08024     -89613.321      189.43592      189.09959      762.86446    
     86100  -90111.827      469.64965     -89642.177      189.45687      189.12085      763.1312     
     86200  -90129.685      475.24867     -89654.436      189.47884      189.1421       763.39794    
     86300  -90141.522      479.86145     -89661.66       189.49973      189.16245      763.66467    
     86400  -90164.244      491.96032     -89672.284      189.51939      189.18058      763.93141    
     86500  -90191.857      488.24965     -89703.607      189.55292      189.20376      764.19814    
     86600  -90224.17       473.33022     -89750.839      189.58007      189.22063      764.46488    
     86700  -90233.994      448.32095     -89785.673      189.59832      189.23991      764.73161    
     86800  -90219.054      449.01431     -89770.04       189.61429      189.25319      764.99835    
     86900  -90195.594      487.49534     -89708.098      189.62191      189.26324      765.26509    
     87000  -90168.977      504.60176     -89664.375      189.64397      189.28073      765.53182    
     87100  -90166.585      492.17241     -89674.413      189.65823      189.29985      765.79856    
     87200  -90184.785      472.03948     -89712.745      189.66953      189.32139      766.06529    
     87300  -90205.003      467.48348     -89737.52       189.69313      189.34262      766.33203    
     87400  -90211.284      471.03882     -89740.245      189.71517      189.36167      766.59877    
     87500  -90203.002      477.47462     -89725.527      189.73048      189.38068      766.8655     
     87600  -90193.297      488.40913     -89704.888      189.74807      189.40116      767.13224    
     87700  -90194.156      491.1917      -89702.964      189.75814      189.41857      767.39897    
     87800  -90203.317      476.74523     -89726.572      189.76475      189.43308      767.66571    
     87900  -90212.779      464.17355     -89748.606      189.77399      189.45158      767.93244    
     88000  -90228.422      472.0679      -89756.354      189.78967      189.47334      768.19918    
     88100  -90234.653      478.10823     -89756.545      189.80103      189.49197      768.46592    
     88200  -90234.946      477.46935     -89757.476      189.81082      189.51167      768.73265    
     88300  -90240.255      481.57962     -89758.675      189.82666      189.53575      768.99939    
     88400  -90245.239      484.46443     -89760.774      189.84079      189.55833      769.26612    
     88500  -90250.005      481.01274     -89768.992      189.85993      189.58032      769.53286    
     88600  -90255.225      476.48974     -89778.735      189.88096      189.61225      769.7996     
     88700  -90256.174      473.04721     -89783.127      189.89305      189.63151      770.06633    
     88800  -90260.036      476.09507     -89783.941      189.90386      189.64802      770.33307    
     88900  -90263.372      480.67441     -89782.698      189.91649      189.66743      770.5998     
     89000  -90266.369      481.15263     -89785.216      189.93518      189.6902       770.86654    
     89100  -90275.196      479.30752     -89795.889      189.94898      189.71266      771.13327    
     89200  -90285.232      476.28127     -89808.951      189.9677       189.73655      771.40001    
     89300  -90288.692      472.43461     -89816.258      189.98605      189.75022      771.66675    
     89400  -90296.973      481.25169     -89815.721      190.00727      189.76385      771.93348    
     89500  -90304.257      481.92048     -89822.337      190.0335       189.7783       772.20022    
     89600  -90311.549      472.32992     -89839.219      190.05863      189.7825       772.46695    
     89700  -90320.085      470.71101     -89849.374      190.08708      189.79092      772.73369    
     89800  -90325.537      478.19473     -89847.343      190.11116      189.80327      773.00043    
     89900  -90329.055      483.95004     -89845.105      190.13229      189.81004      773.26716    
     90000  -90325.942      476.49347     -89849.449      190.1564       189.82537      773.5339     
     90100  -90345.773      486.97892     -89858.794      190.17539      189.84033      773.80063    
     90200  -90352.319      478.27973     -89874.039      190.19506      189.84842      774.06737    
     90300  -90356.239      472.21877     -89884.021      190.21533      189.86189      774.3341     
     90400  -90356.145      471.97623     -89884.169      190.22215      189.87478      774.60084    
     90500  -90364.414      484.74282     -89879.672      190.23434      189.89308      774.86758    
     90600  -90367.09       483.13135     -89883.958      190.25056      189.91409      775.13431    
     90700  -90378.184      477.41552     -89900.769      190.25445      189.92493      775.40105    
     90800  -90384.989      469.98817     -89915.001      190.25948      189.93875      775.66778    
     90900  -90384.853      471.30115     -89913.551      190.26643      189.95577      775.93452    
     91000  -90377.487      477.18388     -89900.303      190.26367      189.9669       776.20126    
     91100  -90371.353      485.29521     -89886.058      190.26627      189.98055      776.46799    
     91200  -90369.411      483.35671     -89886.054      190.27374      189.99407      776.73473    
     91300  -90377.059      480.12648     -89896.933      190.27305      189.99512      777.00146    
     91400  -90385.614      476.62545     -89908.988      190.28259      190.00439      777.2682     
     91500  -90390.541      475.78342     -89914.757      190.29172      190.01771      777.53493    
     91600  -90391.36       472.77018     -89918.59       190.29964      190.02317      777.80167    
     91700  -90398.064      476.9606      -89921.103      190.3139       190.03083      778.06841    
     91800  -90400.607      476.26268     -89924.344      190.3208       190.03779      778.33514    
     91900  -90400.945      471.64699     -89929.298      190.3281       190.04622      778.60188    
     92000  -90407.109      473.6487      -89933.461      190.33327      190.05878      778.86861    
     92100  -90412.019      477.18905     -89934.83       190.33477      190.06629      779.13535    
     92200  -90411.748      476.36637     -89935.382      190.33804      190.07651      779.40209    
     92300  -90413.081      478.15858     -89934.922      190.34119      190.08739      779.66882    
     92400  -90418.7        481.50948     -89937.19       190.34337      190.09881      779.93556    
     92500  -90422.062      478.1529      -89943.91       190.34746      190.11407      780.20229    
     92600  -90426.336      477.07203     -89949.264      190.34773      190.12508      780.46903    
     92700  -90432.597      479.75706     -89952.84       190.35105      190.13768      780.73576    
     92800  -90441.839      482.42877     -89959.41       190.35471      190.14899      781.0025     
     92900  -90442.78       472.45425     -89970.325      190.35579      190.15936      781.26924    
     93000  -90446.407      470.92428     -89975.483      190.35291      190.16896      781.53597    
     93100  -90450.5        475.06885     -89975.431      190.35067      190.1789       781.80271    
     93200  -90442.426      471.14791     -89971.278      190.34575      190.1895       782.06944    
     93300  -90446.654      483.93201     -89962.722      190.33635      190.19944      782.33618    
     93400  -90446.856      485.35527     -89961.501      190.33228      190.21232      782.60291    
     93500  -90452.031      479.88694     -89972.144      190.32508      190.2213       782.86965    
     93600  -90459.991      472.79306     -89987.198      190.31966      190.22902      783.13639    
     93700  -90465.067      472.28395     -89992.783      190.31813      190.2399       783.40312    
     93800  -90458.293      474.90069     -89983.393      190.31272      190.24083      783.66986    
     93900  -90453.47       485.24633     -89968.223      190.31313      190.24386      783.93659    
     94000  -90457.819      489.60844     -89968.211      190.31659      190.2465       784.20333    
     94100  -90464.243      476.22321     -89988.019      190.31871      190.2413       784.47007    
     94200  -90468.538      464.44594     -90004.092      190.32632      190.24008      784.7368     
     94300  -90467.856      470.67704     -89997.179      190.331        190.23426      785.00354    
     94400  -90462.415      484.80011     -89977.615      190.3366       190.22906      785.27027    
     94500  -90450.334      485.1236      -89965.211      190.34735      190.22594      785.53701    
     94600  -90449.962      479.87456     -89970.087      190.35858      190.2151       785.80374    
     94700  -90457.709      473.19762     -89984.512      190.37805      190.20869      786.07048    
     94800  -90464.434      470.14045     -89994.293      190.39785      190.19931      786.33722    
     94900  -90464.711      472.62471     -89992.086      190.41593      190.18551      786.60395    
     95000  -90469.8        485.07972     -89984.72       190.43731      190.17243      786.87069    
     95100  -90462.922      478.94655     -89983.975      190.45937      190.15816      787.13742    
     95200  -90462.235      474.90547     -89987.33       190.47706      190.14171      787.40416    
     95300  -90463.388      476.94306     -89986.445      190.49364      190.13213      787.6709     
     95400  -90464.26       479.03542     -89985.225      190.50836      190.12454      787.93763    
     95500  -90464.477      476.19272     -89988.284      190.52203      190.11458      788.20437    
     95600  -90471.579      481.45238     -89990.126      190.53687      190.10735      788.4711     
     95700  -90469.075      473.50328     -89995.571      190.5525       190.10207      788.73784    
     95800  -90469.751      475.23156     -89994.52       190.5642       190.09366      789.00457    
     95900  -90461.369      477.50332     -89983.866      190.57678      190.0914       789.27131    
     96000  -90457.482      482.36726     -89975.115      190.58118      190.0904       789.53805    
     96100  -90453.452      479.12043     -89974.332      190.57899      190.09444      789.80478    
     96200  -90449.431      473.81353     -89975.617      190.5785       190.10529      790.07152    
     96300  -90446.997      473.90406     -89973.093      190.56866      190.11461      790.33825    
     96400  -90446.729      477.85679     -89968.872      190.55442      190.13069      790.60499    
     96500  -90450.739      483.37208     -89967.367      190.54226      190.15181      790.87173    
     96600  -90453.696      480.52362     -89973.172      190.52275      190.16937      791.13846    
     96700  -90452.507      473.38949     -89979.118      190.50313      190.1909       791.4052     
     96800  -90441.098      468.1697      -89972.928      190.48402      190.20967      791.67193    
     96900  -90437.058      480.20031     -89956.858      190.46368      190.22879      791.93867    
     97000  -90429.666      487.78045     -89941.885      190.44749      190.25051      792.2054     
     97100  -90425.733      485.14326     -89940.59       190.4327       190.26886      792.47214    
     97200  -90429.257      476.97338     -89952.284      190.41492      190.28033      792.73888    
     97300  -90425.016      465.71317     -89959.302      190.40834      190.29264      793.00561    
     97400  -90424.937      475.81453     -89949.123      190.40227      190.30016      793.27235    
     97500  -90415.065      481.031       -89934.034      190.40089      190.30695      793.53908    
     97600  -90416.482      487.27386     -89929.208      190.39882      190.31106      793.80582    
     97700  -90417.897      478.29604     -89939.6        190.39575      190.31481      794.07256    
     97800  -90422.751      472.39873     -89950.353      190.39845      190.32022      794.33929    
     97900  -90423.499      471.99842     -89951.5        190.4039       190.31951      794.60603    
     98000  -90420.79       478.82594     -89941.964      190.4107       190.31971      794.87276    
     98100  -90416.161      483.46922     -89932.692      190.42142      190.31701      795.1395     
     98200  -90408.205      476.8794      -89931.325      190.43176      190.30894      795.40623    
     98300  -90414.534      479.36178     -89935.172      190.44815      190.30207      795.67297    
     98400  -90417.661      475.43829     -89942.222      190.46661      190.29142      795.93971    
     98500  -90418.447      471.54542     -89946.901      190.48085      190.27655      796.20644    
     98600  -90416.201      475.49078     -89940.71       190.496        190.26302      796.47318    
     98700  -90408.447      480.5385      -89927.909      190.51116      190.25289      796.73991    
     98800  -90404.455      482.78006     -89921.675      190.52546      190.23811      797.00665    
     98900  -90406.454      479.58786     -89926.866      190.53968      190.22373      797.27339    
     99000  -90412.617      476.42251     -89936.195      190.55712      190.2102       797.54012    
     99100  -90417.654      473.13114     -89944.523      190.57736      190.19656      797.80686    
     99200  -90415.542      471.6991      -89943.843      190.5905       190.18113      798.07359    
     99300  -90411.742      474.23899     -89937.503      190.6068       190.16518      798.34033    
     99400  -90411.767      480.24452     -89931.523      190.61949      190.14698      798.60706    
     99500  -90422.707      486.09582     -89936.611      190.63336      190.13062      798.8738     
     99600  -90431.282      475.45234     -89955.83       190.64949      190.11354      799.14054    
     99700  -90447.451      473.34116     -89974.11       190.663        190.09666      799.40727    
     99800  -90456.305      474.67711     -89981.627      190.6798       190.08237      799.67401    
     99900  -90468.971      485.51197     -89983.459      190.695        190.06774      799.94074    
    100000  -90476.741      483.03079     -89993.711      190.70438      190.05552      800.20748    
Loop time of 2165.13 on 12 procs for 100000 steps with 12320 atoms

Performance: 3.991 ns/day, 6.014 hours/ns, 46.187 timesteps/s, 569.020 katom-step/s
88.8% CPU use with 12 MPI tasks x 1 OpenMP threads

MPI task timing breakdown:
Section |  min time  |  avg time  |  max time  |%varavg| %total
---------------------------------------------------------------
Pair    | 989.87     | 1442.4     | 2024       | 939.6 | 66.62
Neigh   | 4.2654     | 9.1529     | 15.294     | 108.1 |  0.42
Comm    | 73.474     | 660.76     | 1117       |1398.3 | 30.52
Output  | 0.59276    | 0.62477    | 0.66518    |   2.9 |  0.03
Modify  | 47.846     | 49.605     | 50.829     |  13.5 |  2.29
Other   |            | 2.57       |            |       |  0.12

Nlocal:        1026.67 ave        1689 max         100 min
Histogram: 2 2 0 0 0 0 1 2 3 2
Nghost:        3473.25 ave        5358 max         970 min
Histogram: 4 0 0 0 0 0 1 3 0 4
Neighs:              0 ave           0 max           0 min
Histogram: 12 0 0 0 0 0 0 0 0 0

Total # of neighbors = 0
Ave neighs/atom = 0
Neighbor list builds = 605
Dangerous builds = 0
Total wall time: 0:36:05
