LAMMPS (2 Aug 2023 - Update 3)
OMP_NUM_THREADS environment is not set. Defaulting to 1 thread. (src/comm.cpp:98)
  using 1 OpenMP thread(s) per MPI task
Reading data file ...
  orthogonal box = (-100 -100 -2.3312512) to (100 100 41.316429)
  3 by 4 by 1 MPI processor grid
  reading atoms ...
  1824 atoms
  read_data CPU = 0.024 seconds
Replication is creating a 1x1x3 = 3 times larger system...
  orthogonal box = (-100 -100 -2.3312512) to (100 100 128.61179)
  2 by 3 by 2 MPI processor grid
  5472 atoms
  replicate CPU = 0.069 seconds
1800 atoms in group SR
Deleted 1800 atoms, new total = 3672
System init for write_data ...
WARNING: Communication cutoff is 0.0. No ghost atoms will be generated. Atoms may get lost. (src/comm_brick.cpp:210)
Reading airebo potential file CH.airebo with DATE: 2011-10-25
Reading airebo potential file CH.airebo with DATE: 2011-10-25
Reading airebo potential file CH.airebo with DATE: 2011-10-25
Neighbor list info ...
  update: every = 1 steps, delay = 0 steps, check = yes
  max neighbors/atom: 2000, page size: 100000
  master list distance cutoff = 13.2
  ghost atom cutoff = 13.2
  binsize = 6.6, bins = 31 31 20
  6 neighbor lists, perpetual/occasional/extra = 6 0 0
  (1) pair airebo, perpetual, skip from (5)
      attributes: full, newton on, ghost
      pair build: skip/ghost
      stencil: none
      bin: none
  (2) pair airebo, perpetual, skip from (5)
      attributes: full, newton on, ghost
      pair build: skip/ghost
      stencil: none
      bin: none
  (3) pair airebo, perpetual, skip from (5)
      attributes: full, newton on, ghost
      pair build: skip/ghost
      stencil: none
      bin: none
  (4) pair lj/cut, perpetual, skip from (6)
      attributes: half, newton on, cut 13
      pair build: skip
      stencil: none
      bin: none
  (5) neighbor class addition, perpetual
      attributes: full, newton on, ghost
      pair build: full/bin/ghost
      stencil: full/ghost/bin/3d
      bin: standard
  (6) neighbor class addition, perpetual
      attributes: half, newton on, cut 13
      pair build: half/bin/atomonly/newton
      stencil: half/bin/3d
      bin: standard
Setting up sd style minimization ...
  Unit style    : metal
  Current step  : 0
Per MPI rank memory allocation (min/avg/max) = 9.738 | 10.41 | 11.93 Mbytes
   Step          Temp          E_pair         E_mol          TotEng         Press     
         0   0             -27235.083      0             -27235.083     -77.843168    
         1   0             -27235.103      0             -27235.103     -77.708063    
Loop time of 0.191915 on 12 procs for 1 steps with 3672 atoms

78.9% CPU use with 12 MPI tasks x 1 OpenMP threads

Minimization stats:
  Stopping criterion = energy tolerance
  Energy initial, next-to-last, final = 
     -27235.0825243749  -27235.0825243749  -27235.1025384136
  Force two-norm initial, final = 2.2260009 0.57386881
  Force max component initial, final = 0.036762983 0.0094736875
  Final line search alpha, max atom move = 1 0.0094736875
  Iterations, force evaluations = 1 2

MPI task timing breakdown:
Section |  min time  |  avg time  |  max time  |%varavg| %total
---------------------------------------------------------------
Pair    | 9.648e-06  | 0.013875   | 0.048707   |  16.8 |  7.23
Neigh   | 0          | 0          | 0          |   0.0 |  0.00
Comm    | 4.114e-06  | 0.0037524  | 0.014874   |   9.3 |  1.96
Output  | 0          | 0          | 0          |   0.0 |  0.00
Modify  | 0          | 0          | 0          |   0.0 |  0.00
Other   |            | 0.1743     |            |       | 90.82

Nlocal:            306 ave         918 max           0 min
Histogram: 8 0 0 0 0 0 0 0 0 4
Nghost:            544 ave        1632 max           0 min
Histogram: 8 0 0 0 0 0 0 0 0 4
Neighs:              0 ave           0 max           0 min
Histogram: 12 0 0 0 0 0 0 0 0 0

Total # of neighbors = 0
Ave neighs/atom = 0
Neighbor list builds = 0
Dangerous builds = 0
Setting up Verlet run ...
  Unit style    : metal
  Current step  : 1
  Time step     : 0.001
Per MPI rank memory allocation (min/avg/max) = 10.36 | 11.03 | 12.56 Mbytes
   Step          Temp          E_pair         E_mol          TotEng         Press          Volume    
         1   300           -27235.103      0             -27092.748     -48.678068      5237721.6    
Loop time of 0.00657153 on 12 procs for 0 steps with 3672 atoms

59.8% CPU use with 12 MPI tasks x 1 OpenMP threads

MPI task timing breakdown:
Section |  min time  |  avg time  |  max time  |%varavg| %total
---------------------------------------------------------------
Pair    | 0          | 0          | 0          |   0.0 |  0.00
Neigh   | 0          | 0          | 0          |   0.0 |  0.00
Comm    | 0          | 0          | 0          |   0.0 |  0.00
Output  | 0          | 0          | 0          |   0.0 |  0.00
Modify  | 0          | 0          | 0          |   0.0 |  0.00
Other   |            | 0.006572   |            |       |100.00

Nlocal:            306 ave         918 max           0 min
Histogram: 8 0 0 0 0 0 0 0 0 4
Nghost:            544 ave        1632 max           0 min
Histogram: 8 0 0 0 0 0 0 0 0 4
Neighs:              0 ave           0 max           0 min
Histogram: 12 0 0 0 0 0 0 0 0 0

Total # of neighbors = 0
Ave neighs/atom = 0
Neighbor list builds = 0
Dangerous builds = 0
WARNING: Dump 2 includes no atom IDs and is not sorted by ID. This may complicate post-processing tasks or visualization (src/dump.cpp:221)
Setting up Verlet run ...
  Unit style    : metal
  Current step  : 0
  Time step     : 0.001
Per MPI rank memory allocation (min/avg/max) = 11.86 | 12.53 | 14.06 Mbytes
   Step         PotEng         KinEng         TotEng           Lx             Ly             Lz      
         0  -27235.103      142.3542      -27092.748      200            200            130.94304    
       100  -27151.716      71.29295      -27080.423      199.98922      199.98866      131.00851    
       200  -27150.974      88.11568      -27062.858      199.97911      199.9782       131.07398    
       300  -27140.315      98.558188     -27041.757      199.99524      199.99384      131.13946    
       400  -27127.08       108.35796     -27018.722      199.99624      199.99378      131.20493    
       500  -27119.937      124.88581     -26995.051      199.97786      199.97479      131.2704     
       600  -27103.387      130.92987     -26972.457      199.9874       199.98168      131.33587    
       700  -27093.755      140.54656     -26953.208      200.00134      199.99289      131.40134    
       800  -27087.485      146.83164     -26940.654      199.98508      199.97337      131.46681    
       900  -27087.724      148.18559     -26939.538      199.98379      199.96443      131.53228    
      1000  -27091.976      144.2503      -26947.726      199.99996      199.97599      131.59776    
      1100  -27091.02       135.57519     -26955.444      199.99869      199.96688      131.66323    
      1200  -27095.999      138.87739     -26957.122      199.99375      199.951        131.7287     
      1300  -27091.821      140.47136     -26951.35       200.00527      199.95505      131.79417    
      1400  -27086.198      143.46838     -26942.729      200.01028      199.94865      131.85964    
      1500  -27083.231      145.10322     -26938.128      200.00363      199.92792      131.92511    
      1600  -27083.5        143.01132     -26940.489      200.0113       199.92444      131.99059    
      1700  -27089.836      142.83768     -26946.998      200.02806      199.92509      132.05606    
      1800  -27087.575      137.71181     -26949.863      200.02451      199.90338      132.12153    
      1900  -27088.154      141.1893      -26946.965      200.02634      199.88831      132.187      
      2000  -27082.57       142.43328     -26940.137      200.04614      199.88776      132.25247    
      2100  -27076.825      142.25933     -26934.565      200.051        199.87106      132.31794    
      2200  -27079.074      144.19303     -26934.881      200.05036      199.84742      132.38341    
      2300  -27081.545      142.08795     -26939.457      200.06789      199.83844      132.44889    
      2400  -27082.016      139.764       -26942.252      200.08232      199.82726      132.51436    
      2500  -27083.102      142.0788      -26941.023      200.08528      199.80156      132.57983    
      2600  -27076.442      141.62965     -26934.813      200.0951       199.7785       132.6453     
      2700  -27074.147      146.25115     -26927.896      200.11275      199.76863      132.71077    
      2800  -27070.375      145.00497     -26925.37       200.12441      199.74865      132.77624    
      2900  -27071.125      142.6949      -26928.43       200.12951      199.71946      132.84172    
      3000  -27070.904      138.74302     -26932.161      200.14111      199.70139      132.90719    
      3100  -27070.171      138.44927     -26931.721      200.1598       199.68584      132.97266    
      3200  -27069.103      142.02906     -26927.074      200.17106      199.66027      133.03813    
      3300  -27068.27       146.85938     -26921.41       200.17888      199.63565      133.1036     
      3400  -27065.049      146.244       -26918.805      200.19717      199.61569      133.16907    
      3500  -27062.72       142.39046     -26920.33       200.21168      199.5946       133.23454    
      3600  -27062.123      140.05929     -26922.064      200.21637      199.56654      133.30002    
      3700  -27061.061      139.90106     -26921.16       200.22896      199.54107      133.36549    
      3800  -27058.066      140.93131     -26917.135      200.24661      199.52519      133.43096    
      3900  -27054.66       142.27854     -26912.381      200.25469      199.5003       133.49643    
      4000  -27052.078      143.09466     -26908.984      200.25952      199.46785      133.5619     
      4100  -27050.654      142.0793      -26908.575      200.27272      199.45031      133.62737    
      4200  -27051.551      142.13323     -26909.418      200.28717      199.43003      133.69284    
      4300  -27050.964      141.6091      -26909.355      200.29019      199.40035      133.75832    
      4400  -27048.193      141.33211     -26906.861      200.29644      199.37867      133.82379    
      4500  -27045.425      143.3912      -26902.034      200.31078      199.36174      133.88926    
      4600  -27041.331      144.20103     -26897.13       200.31582      199.33709      133.95473    
      4700  -27039.225      144.47409     -26894.751      200.31543      199.31001      134.0202     
      4800  -27036.217      141.41553     -26894.802      200.32583      199.28958      134.08567    
      4900  -27038.854      143.28631     -26895.568      200.33534      199.27268      134.15115    
      5000  -27032.073      138.10709     -26893.966      200.33461      199.24505      134.21662    
      5100  -27032.49       142.86182     -26889.628      200.33617      199.22035      134.28209    
      5200  -27031.599      146.66364     -26884.936      200.3472       199.20838      134.34756    
      5300  -27024.598      142.13432     -26882.464      200.34977      199.18704      134.41303    
      5400  -27024.133      142.09759     -26882.036      200.34326      199.15784      134.4785     
      5500  -27023.718      141.65437     -26882.064      200.34823      199.14293      134.54397    
      5600  -27023.024      142.8901      -26880.133      200.35508      199.12724      134.60945    
      5700  -27019.14       143.77289     -26875.367      200.34599      199.09966      134.67492    
      5800  -27015.746      145.28563     -26870.46       200.34329      199.07885      134.74039    
      5900  -27009.088      142.42925     -26866.658      200.3505       199.06496      134.80586    
      6000  -27005.896      141.48343     -26864.413      200.34413      199.04117      134.87133    
      6100  -27004.3        140.34536     -26863.955      200.33705      199.01652      134.9368     
      6200  -27003.592      139.60113     -26863.991      200.3427       199.00264      135.00228    
      6300  -27001.45       139.7772      -26861.673      200.34164      198.98482      135.06775    
      6400  -27000.232      143.93053     -26856.301      200.33061      198.95649      135.13322    
      6500  -26994.364      143.20617     -26851.158      200.33126      198.93888      135.19869    
      6600  -26991.071      142.61691     -26848.454      200.33345      198.92457      135.26416    
      6700  -26988.319      138.78386     -26849.535      200.3221       198.8952       135.32963    
      6800  -26990.316      141.07835     -26849.238      200.31439      198.87101      135.3951     
      6900  -26983.026      138.6371      -26844.389      200.3181       198.85738      135.46058    
      7000  -26980.155      141.1018      -26839.054      200.31126      198.83227      135.52605    
      7100  -26978.208      142.66084     -26835.547      200.29914      198.80303      135.59152    
      7200  -26973.256      140.61709     -26832.639      200.2985       198.78438      135.65699    
      7300  -26968.535      139.77427     -26828.761      200.2959       198.76279      135.72246    
      7400  -26968.029      143.99439     -26824.035      200.28592      198.73343      135.78793    
      7500  -26965.874      145.06213     -26820.812      200.28075      198.70798      135.85341    
      7600  -26960.911      140.40912     -26820.502      200.27963      198.68433      135.91888    
      7700  -26962.052      142.00917     -26820.043      200.27301      198.65578      135.98435    
      7800  -26955.572      140.08416     -26815.488      200.2643       198.62346      136.04982    
      7900  -26952.809      145.52805     -26807.281      200.26261      198.59744      136.11529    
      8000  -26945.977      142.44237     -26803.534      200.26037      198.57257      136.18076    
      8100  -26945.308      143.86859     -26801.44       200.24955      198.53477      136.24623    
      8200  -26940.921      139.92393     -26800.997      200.24468      198.50386      136.31171    
      8300  -26940.327      141.17286     -26799.155      200.24705      198.48003      136.37718    
      8400  -26935.412      140.10276     -26795.309      200.24024      198.44325      136.44265    
      8500  -26929.21       142.74759     -26786.462      200.22832      198.40278      136.50812    
      8600  -26927.908      146.43757     -26781.47       200.23083      198.37499      136.57359    
      8700  -26924.576      143.93733     -26780.639      200.23147      198.34285      136.63906    
      8800  -26919.744      140.03319     -26779.711      200.21623      198.29588      136.70453    
      8900  -26916.823      140.51874     -26776.304      200.21298      198.25786      136.77001    
      9000  -26912.528      142.26955     -26770.259      200.21998      198.22949      136.83548    
      9100  -26906.976      146.45546     -26760.521      200.2102       198.18444      136.90095    
      9200  -26901.261      142.92908     -26758.332      200.19994      198.13712      136.96642    
      9300  -26904.476      145.92245     -26758.554      200.20568      198.10478      137.03189    
      9400  -26896.249      139.51591     -26756.733      200.20386      198.06328      137.09736    
      9500  -26897.654      144.22467     -26753.43       200.19137      198.01094      137.16284    
      9600  -26889.998      140.1206      -26749.877      200.19259      197.96953      137.22831    
      9700  -26888.059      143.93228     -26744.127      200.19539      197.92969      137.29378    
      9800  -26878.645      142.26358     -26736.382      200.1858       197.87625      137.35925    
      9900  -26874.774      142.90811     -26731.866      200.18122      197.82495      137.42472    
     10000  -26873.752      142.03575     -26731.716      200.18506      197.78312      137.49019    
     10100  -26871.364      141.77133     -26729.593      200.1802       197.72979      137.55566    
     10200  -26864.186      139.67749     -26724.508      200.17151      197.67197      137.62114    
     10300  -26860.485      141.68975     -26718.795      200.17462      197.6262       137.68661    
     10400  -26854.553      142.04782     -26712.505      200.17556      197.57469      137.75208    
     10500  -26851.949      147.26846     -26704.681      200.16497      197.51413      137.81755    
     10600  -26844.239      146.5068      -26697.732      200.1624       197.45794      137.88302    
     10700  -26841.247      143.12236     -26698.125      200.1657       197.40746      137.94849    
     10800  -26838.988      142.46067     -26696.527      200.15831      197.34816      138.01397    
     10900  -26835.309      141.986       -26693.323      200.14943      197.28389      138.07944    
     11000  -26829.554      139.7895      -26689.765      200.15182      197.22958      138.14491    
     11100  -26828.362      143.94104     -26684.421      200.15018      197.17337      138.21038    
     11200  -26818.54       142.11644     -26676.423      200.13933      197.10568      138.27585    
     11300  -26814.332      143.85502     -26670.477      200.13458      197.04521      138.34132    
     11400  -26814.844      144.8609      -26669.983      200.13532      196.98961      138.40679    
     11500  -26809.441      141.71542     -26667.726      200.1241       196.91986      138.47227    
     11600  -26801.457      139.2577      -26662.199      200.11098      196.85169      138.53774    
     11700  -26798.432      143.30217     -26655.13       200.11285      196.79478      138.60321    
     11800  -26790.23       142.98213     -26647.248      200.10641      196.72933      138.66868    
     11900  -26786.608      145.31196     -26641.296      200.08888      196.6566       138.73415    
     12000  -26788.132      145.25434     -26642.878      200.08511      196.59418      138.79962    
     12100  -26780.869      141.10448     -26639.764      200.0815       196.53163      138.8651     
     12200  -26773.617      140.2356      -26633.381      200.0646       196.45863      138.93057    
     12300  -26768.554      143.27481     -26625.279      200.05433      196.38753      138.99604    
     12400  -26762.002      142.65991     -26619.343      200.05117      196.32658      139.06151    
     12500  -26759.366      141.71574     -26617.651      200.03683      196.25499      139.12698    
     12600  -26754.419      137.76608     -26616.653      200.01794      196.17614      139.19245    
     12700  -26751.264      141.01091     -26610.253      200.00871      196.10921      139.25792    
     12800  -26740.986      139.25189     -26601.735      200.00157      196.04201      139.3234     
     12900  -26737.391      142.4108      -26594.98       199.98167      195.96377      139.38887    
     13000  -26733.574      143.48653     -26590.087      199.96551      195.88881      139.45434    
     13100  -26728.035      141.16155     -26586.873      199.95948      195.82033      139.51981    
     13200  -26727.358      140.65555     -26586.702      199.94291      195.7462       139.58528    
     13300  -26722.153      140.19605     -26581.957      199.92         195.66371      139.65075    
     13400  -26714.546      140.09133     -26574.455      199.9081       195.59096      139.71622    
     13500  -26710.972      144.16135     -26566.811      199.89646      195.5202       139.7817     
     13600  -26702.826      143.4866      -26559.339      199.87292      195.43685      139.84717    
     13700  -26696.495      143.6481      -26552.847      199.85386      195.35747      139.91264    
     13800  -26689.456      140.74311     -26548.713      199.84284      195.28735      139.97811    
     13900  -26687.888      140.1418      -26547.746      199.82322      195.20632      140.04358    
     14000  -26683.724      141.63059     -26542.094      199.79725      195.12135      140.10905    
     14100  -26673.077      140.43658     -26532.64       199.78317      195.04669      140.17453    
     14200  -26670.912      145.6938      -26525.218      199.76853      194.9705       140.24       
     14300  -26663.662      143.36212     -26520.3        199.74123      194.88274      140.30547    
     14400  -26660.24       143.27662     -26516.963      199.71988      194.79958      140.37094    
     14500  -26652.731      139.0079      -26513.723      199.70605      194.72504      140.43641    
     14600  -26650.193      139.4392      -26510.753      199.6837       194.64075      140.50188    
     14700  -26644.449      138.56244     -26505.886      199.6582       194.55262      140.56735    
     14800  -26636.682      141.34423     -26495.337      199.64206      194.47361      140.63283    
     14900  -26628.715      141.87046     -26486.844      199.62549      194.3947       140.6983     
     15000  -26622.848      142.77414     -26480.074      199.59997      194.30517      140.76377    
     15100  -26617.992      142.84457     -26475.148      199.57698      194.21909      140.82924    
     15200  -26616.223      142.81309     -26473.41       199.56144      194.13969      140.89471    
     15300  -26609.242      139.94819     -26469.294      199.53945      194.05432      140.96018    
     15400  -26601.433      141.04829     -26460.385      199.51291      193.96415      141.02566    
     15500  -26596.19       144.50534     -26451.685      199.495        193.88055      141.09113    
     15600  -26587.161      141.50322     -26445.658      199.47817      193.79894      141.1566     
     15700  -26584.026      144.40381     -26439.622      199.45395      193.71045      141.22207    
     15800  -26577.498      142.49375     -26435.005      199.43356      193.62449      141.28754    
     15900  -26573.482      141.34715     -26432.135      199.41707      193.54268      141.35301    
     16000  -26566.019      138.93767     -26427.081      199.39553      193.45589      141.41848    
     16100  -26558.687      141.89714     -26416.79       199.37515      193.36738      141.48396    
     16200  -26550.646      143.09424     -26407.552      199.35637      193.28401      141.54943    
     16300  -26545.97       144.11156     -26401.859      199.33755      193.19791      141.6149     
     16400  -26538.732      140.18444     -26398.547      199.31752      193.11155      141.68037    
     16500  -26534.121      138.71302     -26395.408      199.2987       193.02748      141.74584    
     16600  -26530.712      140.75204     -26389.96       199.28208      192.94376      141.81131    
     16700  -26518.799      140.41809     -26378.381      199.26271      192.85832      141.87678    
     16800  -26512.426      143.14015     -26369.286      199.24389      192.77431      141.94226    
     16900  -26506.436      143.03185     -26363.404      199.2281       192.69203      142.00773    
     17000  -26500.155      139.14983     -26361.005      199.21021      192.60925      142.0732     
     17100  -26499.153      142.79136     -26356.362      199.19024      192.52329      142.13867    
     17200  -26492.031      142.95621     -26349.074      199.17292      192.44084      142.20414    
     17300  -26485.614      146.29048     -26339.323      199.1573       192.36177      142.26961    
     17400  -26475.945      147.00535     -26328.939      199.14019      192.27985      142.33509    
     17500  -26467.641      144.34716     -26323.294      199.1225       192.19835      142.40056    
     17600  -26461.168      141.92433     -26319.244      199.10591      192.11882      142.46603    
     17700  -26457.167      141.51788     -26315.649      199.09159      192.04185      142.5315     
     17800  -26451.847      141.60263     -26310.244      199.07554      191.96435      142.59697    
     17900  -26443.66       142.38946     -26301.271      199.05787      191.88558      142.66244    
     18000  -26433.287      143.38068     -26289.906      199.04132      191.80819      142.72791    
     18100  -26430.318      146.39236     -26283.925      199.02641      191.73539      142.79339    
     18200  -26420.915      140.79503     -26280.12       199.01094      191.66189      142.85886    
     18300  -26418.203      143.44205     -26274.761      198.99201      191.58535      142.92433    
     18400  -26408.248      139.70204     -26268.546      198.97652      191.51525      142.9898     
     18500  -26404.836      143.55995     -26261.276      198.96396      191.44685      143.05527    
     18600  -26393.713      143.94734     -26249.766      198.94686      191.37667      143.12074    
     18700  -26386.609      145.48002     -26241.129      198.92876      191.30688      143.18622    
     18800  -26382.045      144.39046     -26237.654      198.91489      191.23987      143.25169    
     18900  -26375.504      142.18498     -26233.319      198.89798      191.174        143.31716    
     19000  -26365.996      139.37238     -26226.623      198.88047      191.10813      143.38263    
     19100  -26359.767      140.89487     -26218.872      198.86585      191.04609      143.4481     
     19200  -26354.319      144.95121     -26209.368      198.85142      190.98584      143.51357    
     19300  -26345.094      146.58638     -26198.508      198.83405      190.92311      143.57904    
     19400  -26339.178      145.48856     -26193.689      198.81597      190.86165      143.64452    
     19500  -26332.219      141.11806     -26191.101      198.8027       190.80603      143.70999    
     19600  -26326.921      142.106       -26184.815      198.78707      190.74865      143.77546    
     19700  -26319.521      142.56736     -26176.953      198.76615      190.68856      143.84093    
     19800  -26313.06       145.49287     -26167.567      198.75168      190.63474      143.9064     
     19900  -26305.936      148.82885     -26157.107      198.73906      190.58289      143.97187    
     20000  -26295.831      146.506       -26149.325      198.71908      190.52619      144.03735    
     20100  -26287.958      140.09081     -26147.867      198.70182      190.47177      144.10282    
     20200  -26284.636      141.80824     -26142.827      198.69102      190.42484      144.16829    
     20300  -26276.568      142.08975     -26134.478      198.67471      190.3746       144.23376    
     20400  -26268.075      143.6159      -26124.459      198.65688      190.32175      144.29923    
     20500  -26258.293      142.9823      -26115.311      198.64443      190.27666      144.3647     
     20600  -26252.232      142.14754     -26110.085      198.63044      190.23095      144.43017    
     20700  -26250.277      142.83222     -26107.444      198.60968      190.1789       144.49565    
     20800  -26241.599      141.72936     -26099.87       198.59367      190.13223      144.56112    
     20900  -26227.317      138.50205     -26088.815      198.58338      190.09193      144.62659    
     21000  -26220.746      141.41736     -26079.329      198.56669      190.04511      144.69206    
     21100  -26213.861      141.83578     -26072.025      198.54596      189.9972       144.75753    
     21200  -26206.826      140.77286     -26066.053      198.53544      189.95831      144.823      
     21300  -26200.659      139.35353     -26061.306      198.52507      189.91969      144.88847    
     21400  -26197.229      138.22143     -26059.007      198.50272      189.87339      144.95395    
     21500  -26191.058      140.18432     -26050.874      198.48692      189.83009      145.01942    
     21600  -26180.005      140.39959     -26039.605      198.47952      189.79764      145.08489    
     21700  -26173.488      143.96188     -26029.526      198.46228      189.75532      145.15036    
     21800  -26160.805      141.29772     -26019.508      198.44199      189.70975      145.21583    
     21900  -26154.379      143.94221     -26010.437      198.43137      189.67572      145.2813     
     22000  -26146.073      143.15471     -26002.918      198.42104      189.64015      145.34678    
     22100  -26140.968      141.88045     -25999.087      198.40228      189.59715      145.41225    
     22200  -26136.196      142.06919     -25994.127      198.38798      189.5596       145.47772    
     22300  -26125.791      141.21489     -25984.576      198.37941      189.52733      145.54319    
     22400  -26116.369      142.99335     -25973.376      198.36239      189.48799      145.60866    
     22500  -26110.991      145.954       -25965.037      198.3454       189.44746      145.67413    
     22600  -26100.939      143.1295      -25957.81       198.33779      189.4164       145.7396     
     22700  -26094.1        142.58407     -25951.516      198.32694      189.38394      145.80508    
     22800  -26087.987      142.12423     -25945.862      198.308        189.34249      145.87055    
     22900  -26076.392      137.0591      -25939.333      198.29483      189.3094       145.93602    
     23000  -26071.19       142.78832     -25928.402      198.2888       189.28151      146.00149    
     23100  -26059.123      142.36947     -25916.753      198.27307      189.24515      146.06696    
     23200  -26052.971      144.44371     -25908.527      198.2534       189.20698      146.13243    
     23300  -26045.419      143.19578     -25902.223      198.2466       189.17764      146.19791    
     23400  -26039.56       141.32993     -25898.231      198.2391       189.15011      146.26338    
     23500  -26029.204      136.87386     -25892.33       198.21949      189.11147      146.32885    
     23600  -26022.244      142.95319     -25879.29       198.205        189.07596      146.39432    
     23700  -26009.761      140.72212     -25869.039      198.20013      189.05273      146.45979    
     23800  -26005.728      144.85782     -25860.87       198.18883      189.02108      146.52526    
     23900  -25997.176      143.14129     -25854.034      198.16997      188.98343      146.59073    
     24000  -25989.319      140.60098     -25848.718      198.16         188.95599      146.65621    
     24100  -25980.708      138.57825     -25842.13       198.15303      188.92865      146.72168    
     24200  -25972.181      142.48282     -25829.698      198.13484      188.8936       146.78715    
     24300  -25960.633      142.1982      -25818.434      198.12162      188.8617       146.85262    
     24400  -25952.035      141.71624     -25810.319      198.11526      188.83692      146.91809    
     24500  -25947.765      143.29224     -25804.473      198.10308      188.80835      146.98356    
     24600  -25938.953      139.27183     -25799.681      198.08691      188.77321      147.04904    
     24700  -25932.308      140.12979     -25792.178      198.07558      188.74606      147.11451    
     24800  -25920.239      141.91547     -25778.324      198.06954      188.7221       147.17998    
     24900  -25910.776      142.77086     -25768.005      198.05471      188.68939      147.24545    
     25000  -25906.704      145.27494     -25761.429      198.03664      188.65517      147.31092    
     25100  -25898.611      141.94437     -25756.667      198.02967      188.63043      147.37639    
     25200  -25890.352      141.40512     -25748.947      198.021        188.60507      147.44186    
     25300  -25878.939      141.35675     -25737.583      198.00184      188.5704       147.50734    
     25400  -25872.132      146.1725      -25725.959      197.98969      188.54053      147.57281    
     25500  -25861.598      143.68617     -25717.912      197.98471      188.51882      147.63828    
     25600  -25853.427      142.7578      -25710.67       197.9711       188.48902      147.70375    
     25700  -25846.624      142.14828     -25704.476      197.95443      188.4556       147.76922    
     25800  -25840.084      141.64752     -25698.436      197.94647      188.43142      147.83469    
     25900  -25828.613      138.38606     -25690.227      197.93902      188.40566      147.90016    
     26000  -25821.175      144.50396     -25676.671      197.92032      188.37127      147.96564    
     26100  -25808.597      142.23199     -25666.365      197.90846      188.34186      148.03111    
     26200  -25802.875      144.00148     -25658.873      197.90277      188.31981      148.09658    
     26300  -25793.632      140.1073      -25653.524      197.89007      188.29052      148.16205    
     26400  -25785.795      138.49426     -25647.301      197.87214      188.25666      148.22752    
     26500  -25776.379      141.45389     -25634.925      197.86384      188.23155      148.29299    
     26600  -25766.482      144.28139     -25622.2        197.8578       188.20905      148.35847    
     26700  -25758.977      145.40658     -25613.571      197.84095      188.17481      148.42394    
     26800  -25749.611      141.92605     -25607.685      197.82407      188.14184      148.48941    
     26900  -25744.969      143.33893     -25601.63       197.81772      188.11918      148.55488    
     27000  -25735.73       142.62085     -25593.11       197.81022      188.09389      148.62035    
     27100  -25723.141      144.14465     -25578.997      197.79266      188.06013      148.68582    
     27200  -25713.721      145.17288     -25568.549      197.78082      188.02994      148.75129    
     27300  -25702.75       140.71574     -25562.034      197.7744       188.00649      148.81677    
     27400  -25697.117      140.83079     -25556.286      197.76091      187.97655      148.88224    
     27500  -25689.766      141.87667     -25547.889      197.74522      187.94356      148.94771    
     27600  -25675.995      138.9551      -25537.039      197.73669      187.91891      149.01318    
     27700  -25665.029      143.30448     -25521.724      197.72707      187.89152      149.07865    
     27800  -25657.444      143.81582     -25513.628      197.70895      187.8571       149.14412    
     27900  -25651.19       142.46725     -25508.723      197.69668      187.82889      149.2096     
     28000  -25643.487      140.59449     -25502.892      197.69278      187.80608      149.27507    
     28100  -25631.296      136.84011     -25494.456      197.6768       187.77521      149.34054    
     28200  -25627.15       144.54923     -25482.601      197.6575       187.73943      149.40601    
     28300  -25613.507      143.28618     -25470.221      197.65219      187.71621      149.47148    
     28400  -25605.072      143.29944     -25461.772      197.64448      187.69441      149.53695    
     28500  -25595.395      141.16435     -25454.231      197.6249       187.65668      149.60242    
     28600  -25588.825      142.92104     -25445.904      197.60562      187.62258      149.6679     
     28700  -25578.295      141.57781     -25436.717      197.60005      187.60141      149.73337    
     28800  -25569.551      142.38921     -25427.162      197.59198      187.5746       149.79884    
     28900  -25562.582      146.03468     -25416.548      197.5695       187.53863      149.86431    
     29000  -25551.545      143.88909     -25407.656      197.556        187.50826      149.92978    
     29100  -25542.467      140.85502     -25401.612      197.54825      187.4852       149.99525    
     29200  -25536.558      141.37928     -25395.179      197.53173      187.45479      150.06073    
     29300  -25526.087      141.12852     -25384.958      197.5136       187.42009      150.1262     
     29400  -25514.845      144.60783     -25370.237      197.50254      187.39589      150.19167    
     29500  -25505.068      144.83312     -25360.234      197.49007      187.36826      150.25714    
     29600  -25494.512      141.72613     -25352.786      197.46914      187.33335      150.32261    
     29700  -25489.199      143.24911     -25345.95       197.45284      187.30392      150.38808    
     29800  -25478.348      139.5605      -25338.788      197.44414      187.28011      150.45355    
     29900  -25470.916      139.54433     -25331.372      197.4262       187.25049      150.51903    
     30000  -25459.589      139.8739      -25319.715      197.40418      187.21529      150.5845     
     30100  -25450.378      143.77982     -25306.598      197.39355      187.19163      150.64997    
     30200  -25439.559      143.5944      -25295.965      197.38051      187.16639      150.71544    
     30300  -25429.961      142.22106     -25287.74       197.35661      187.13033      150.78091    
     30400  -25424.084      140.92791     -25283.156      197.3359       187.09858      150.84638    
     30500  -25414.478      139.44627     -25275.032      197.32515      187.07515      150.91185    
     30600  -25402.041      138.86021     -25263.181      197.30935      187.04677      150.97733    
     30700  -25390.753      139.19107     -25251.562      197.28564      187.01183      151.0428     
     30800  -25381.487      141.29317     -25240.194      197.26844      186.98291      151.10827    
     30900  -25374.68       144.9852      -25229.695      197.25687      186.95878      151.17374    
     31000  -25364.321      142.55692     -25221.765      197.23759      186.92723      151.23921    
     31100  -25359.278      142.4117      -25216.867      197.21275      186.89145      151.30468    
     31200  -25346.823      138.99773     -25207.825      197.19751      186.86516      151.37016    
     31300  -25334.578      140.0104      -25194.567      197.18432      186.84054      151.43563    
     31400  -25326.711      143.4489      -25183.262      197.1607       186.80636      151.5011     
     31500  -25315.974      142.09522     -25173.879      197.13704      186.7722       151.56657    
     31600  -25307.895      142.97819     -25164.917      197.12289      186.74743      151.63204    
     31700  -25296.984      140.44906     -25156.535      197.1061       186.72072      151.69751    
     31800  -25289.028      141.02922     -25147.999      197.07923      186.68493      151.76298    
     31900  -25277.026      140.05042     -25136.975      197.05819      186.65214      151.82846    
     32000  -25268.724      144.72797     -25123.996      197.04314      186.62745      151.89393    
     32100  -25256.259      143.36158     -25112.897      197.02178      186.59547      151.9594     
     32200  -25247.756      142.31578     -25105.44       196.99651      186.55952      152.02487    
     32300  -25242.087      140.98972     -25101.097      196.97924      186.53177      152.09034    
     32400  -25233.127      142.50575     -25090.621      196.96216      186.50334      152.15581    
     32500  -25221.589      143.66703     -25077.921      196.9374       186.46903      152.22129    
     32600  -25207.502      141.14288     -25066.359      196.91534      186.43648      152.28676    
     32700  -25199.096      142.21922     -25056.876      196.89781      186.40751      152.35223    
     32800  -25189.718      141.23955     -25048.479      196.8748       186.3739       152.4177     
     32900  -25184.211      140.95435     -25043.256      196.8498       186.33699      152.48317    
     33000  -25173.849      140.42678     -25033.422      196.83035      186.30555      152.54864    
     33100  -25161.063      141.58872     -25019.474      196.81326      186.27843      152.61411    
     33200  -25149.838      141.95495     -25007.884      196.79078      186.24114      152.67959    
     33300  -25141.208      143.18658     -24998.021      196.76307      186.20329      152.74506    
     33400  -25132.081      142.39864     -24989.682      196.74523      186.17239      152.81053    
     33500  -25122.19       137.73946     -24984.451      196.72952      186.14251      152.876      
     33600  -25115.076      139.83349     -24975.242      196.70197      186.10427      152.94147    
     33700  -25102.071      141.21114     -24960.859      196.67606      186.06265      153.00694    
     33800  -25092.356      142.87821     -24949.478      196.65873      186.0344       153.07241    
     33900  -25080.767      142.42165     -24938.345      196.6426       186.00322      153.13789    
     34000  -25073.181      145.58761     -24927.593      196.61556      185.96175      153.20336    
     34100  -25062.123      143.6655      -24918.458      196.59041      185.92461      153.26883    
     34200  -25054.343      142.09593     -24912.247      196.57745      185.89351      153.3343     
     34300  -25045.69       141.82725     -24903.862      196.55529      185.85896      153.39977    
     34400  -25033.129      142.37677     -24890.752      196.52845      185.81675      153.46524    
     34500  -25021.382      144.51228     -24876.869      196.51032      185.78127      153.53072    
     34600  -25011.469      144.09999     -24867.369      196.49044      185.74793      153.59619    
     34700  -24999.921      140.92216     -24858.998      196.46514      185.70458      153.66166    
     34800  -24991.816      140.51825     -24851.297      196.44145      185.6663       153.72713    
     34900  -24985.713      140.88276     -24844.83       196.42499      185.63375      153.7926     
     35000  -24973.913      137.63634     -24836.277      196.40448      185.59488      153.85807    
     35100  -24962.061      141.21308     -24820.848      196.37648      185.55261      153.92354    
     35200  -24952.791      144.394       -24808.397      196.3571       185.51482      153.98902    
     35300  -24940.721      143.26786     -24797.454      196.3415       185.48253      154.05449    
     35400  -24930.012      142.14218     -24787.87       196.31674      185.44248      154.11996    
     35500  -24922.849      142.13247     -24780.717      196.29067      185.39747      154.18543    
     35600  -24914.837      141.5221      -24773.315      196.26989      185.36167      154.2509     
     35700  -24903.228      141.83641     -24761.392      196.25315      185.3252       154.31637    
     35800  -24887.315      141.13777     -24746.177      196.22765      185.2823       154.38185    
     35900  -24876.465      140.80022     -24735.665      196.20169      185.23851      154.44732    
     36000  -24869.493      142.04543     -24727.447      196.18525      185.203        154.51279    
     36100  -24862.785      142.28942     -24720.496      196.16527      185.16634      154.57826    
     36200  -24850.758      139.38914     -24711.369      196.13745      185.12004      154.64373    
     36300  -24840.369      144.49644     -24695.873      196.11271      185.07759      154.7092     
     36400  -24826.235      142.36719     -24683.868      196.09665      185.04345      154.77467    
     36500  -24817.874      142.71825     -24675.155      196.07417      185.00156      154.84015    
     36600  -24812.409      144.25305     -24668.156      196.04371      184.95549      154.90562    
     36700  -24799.499      139.32493     -24660.174      196.02428      184.91576      154.97109    
     36800  -24788.767      142.07067     -24646.696      196.00506      184.88064      155.03656    
     36900  -24775.508      143.46099     -24632.047      195.97967      184.83572      155.10203    
     37000  -24767.099      143.96061     -24623.138      195.95225      184.79191      155.1675     
     37100  -24759.157      143.12998     -24616.027      195.93039      184.75197      155.23298    
     37200  -24747.286      140.15939     -24607.127      195.90764      184.71115      155.29845    
     37300  -24735.064      141.21552     -24593.849      195.88054      184.66773      155.36392    
     37400  -24725.061      145.66338     -24579.398      195.85714      184.62513      155.42939    
     37500  -24714.365      143.66449     -24570.7        195.83501      184.58738      155.49486    
     37600  -24705.547      142.58452     -24562.962      195.80969      184.54408      155.56033    
     37700  -24694.474      139.63391     -24554.84       195.78144      184.49864      155.6258     
     37800  -24687.981      144.05962     -24543.922      195.75584      184.4585       155.69128    
     37900  -24672.035      140.58815     -24531.447      195.73456      184.41814      155.75675    
     38000  -24660.297      145.99133     -24514.305      195.70598      184.37569      155.82222    
     38100  -24648.916      144.23856     -24504.677      195.67641      184.32919      155.88769    
     38200  -24641.829      143.15208     -24498.677      195.65238      184.28946      155.95316    
     38300  -24632.743      141.53196     -24491.211      195.629        184.25211      156.01863    
     38400  -24623.343      141.75527     -24481.588      195.6          184.20709      156.0841     
     38500  -24611.365      141.70789     -24469.657      195.56896      184.16466      156.14958    
     38600  -24599.739      144.83092     -24454.908      195.54678      184.12654      156.21505    
     38700  -24590.04       145.42966     -24444.61       195.52047      184.08689      156.28052    
     38800  -24580.379      143.29525     -24437.084      195.48574      184.04005      156.34599    
     38900  -24570.405      142.39448     -24428.01       195.45576      183.99682      156.41146    
     39000  -24558.629      141.51232     -24417.116      195.43057      183.96056      156.47693    
     39100  -24547.72       142.51903     -24405.201      195.40165      183.91949      156.54241    
     39200  -24536.468      143.64059     -24392.828      195.36785      183.87514      156.60788    
     39300  -24526.667      146.41989     -24380.247      195.33995      183.83674      156.67335    
     39400  -24513.758      142.41763     -24371.341      195.3158       183.80028      156.73882    
     39500  -24508.008      142.37738     -24365.631      195.28071      183.75728      156.80429    
     39600  -24497.781      141.69764     -24356.083      195.24468      183.71032      156.86976    
     39700  -24488.231      144.20735     -24344.023      195.21736      183.67376      156.93523    
     39800  -24472.479      143.0872      -24329.392      195.19069      183.63725      157.00071    
     39900  -24462.721      144.63591     -24318.085      195.15587      183.59268      157.06618    
     40000  -24453.486      144.65764     -24308.828      195.11954      183.54974      157.13165    
     40100  -24441.042      140.9396      -24300.102      195.09359      183.51296      157.19712    
     40200  -24430.058      139.27726     -24290.781      195.06374      183.47611      157.26259    
     40300  -24424.236      144.22652     -24280.009      195.02614      183.43048      157.32806    
     40400  -24411.129      144.03486     -24267.094      194.99359      183.3893       157.39354    
     40500  -24398.186      144.12147     -24254.064      194.96617      183.35382      157.45901    
     40600  -24388.071      143.72585     -24244.345      194.93147      183.31102      157.52448    
     40700  -24380.423      141.93694     -24238.486      194.89385      183.26644      157.58995    
     40800  -24370.636      141.94873     -24228.687      194.86249      183.22776      157.65542    
     40900  -24358.411      141.91952     -24216.492      194.83366      183.19131      157.72089    
     41000  -24347.499      144.4212      -24203.078      194.79785      183.14863      157.78636    
     41100  -24335.693      145.01676     -24190.676      194.76168      183.10445      157.85184    
     41200  -24326.754      142.72225     -24184.032      194.73343      183.06823      157.91731    
     41300  -24315.614      137.78325     -24177.831      194.70161      183.02984      157.98278    
     41400  -24306.357      141.79909     -24164.558      194.66395      182.9835       158.04825    
     41500  -24294.034      143.82945     -24150.205      194.62952      182.94217      158.11372    
     41600  -24280.835      142.59777     -24138.237      194.6023       182.90627      158.17919    
     41700  -24273.494      144.04264     -24129.451      194.57073      182.86676      158.24467    
     41800  -24262.937      139.87281     -24123.064      194.53262      182.81953      158.31014    
     41900  -24251.688      139.00143     -24112.686      194.50013      182.77893      158.37561    
     42000  -24241.237      141.00097     -24100.236      194.47286      182.74303      158.44108    
     42100  -24230.987      143.23273     -24087.754      194.43862      182.69879      158.50655    
     42200  -24218.598      142.75225     -24075.846      194.40106      182.6525       158.57202    
     42300  -24206.064      142.62969     -24063.435      194.37079      182.61101      158.63749    
     42400  -24193.971      144.18051     -24049.791      194.34266      182.57361      158.70297    
     42500  -24184.382      146.20745     -24038.175      194.31106      182.5309       158.76844    
     42600  -24175.731      143.20731     -24032.524      194.27553      182.48468      158.83391    
     42700  -24165.298      141.24856     -24024.049      194.24469      182.4435       158.89938    
     42800  -24155.979      142.53413     -24013.445      194.2174       182.40308      158.96485    
     42900  -24142.921      142.08674     -24000.835      194.18468      182.36031      159.03032    
     43000  -24130.856      144.6948      -23986.161      194.15321      182.31404      159.09579    
     43100  -24117.262      142.38147     -23974.881      194.12209      182.27192      159.16127    
     43200  -24113.014      143.27474     -23969.739      194.09288      182.2297       159.22674    
     43300  -24099.682      139.33973     -23960.343      194.06375      182.18528      159.29221    
     43400  -24091.511      143.73723     -23947.774      194.03232      182.14224      159.35768    
     43500  -24074.797      140.18067     -23934.616      194.00591      182.09866      159.42315    
     43600  -24066.681      144.77454     -23921.906      193.97596      182.05593      159.48862    
     43700  -24057.544      144.35383     -23913.19       193.94703      182.01061      159.5541     
     43800  -24047.746      140.67377     -23907.073      193.91822      181.96579      159.61957    
     43900  -24034.461      138.59992     -23895.861      193.88921      181.92233      159.68504    
     44000  -24024.684      143.22589     -23881.458      193.86211      181.87615      159.75051    
     44100  -24011.408      142.86939     -23868.538      193.83117      181.83203      159.81598    
     44200  -24000.503      142.40681     -23858.096      193.80663      181.78762      159.88145    
     44300  -23990.957      142.04124     -23848.916      193.781        181.74589      159.94692    
     44400  -23980.129      139.6796      -23840.45       193.75246      181.70044      160.0124     
     44500  -23973.615      138.37758     -23835.238      193.72524      181.65376      160.07787    
     44600  -23961.428      137.88832     -23823.539      193.69845      181.61187      160.14334    
     44700  -23948.916      139.16219     -23809.754      193.67672      181.5683       160.20881    
     44800  -23938.663      142.88494     -23795.778      193.64581      181.5223       160.27428    
     44900  -23924.784      142.16363     -23782.621      193.61701      181.474        160.33975    
     45000  -23914.509      143.80148     -23770.708      193.59422      181.43385      160.40523    
     45100  -23904.286      142.78879     -23761.497      193.57036      181.39176      160.4707     
     45200  -23894.235      139.22242     -23755.013      193.54137      181.34256      160.53617    
     45300  -23885.661      141.80795     -23743.854      193.51294      181.29784      160.60164    
     45400  -23872.903      143.7242      -23729.179      193.49273      181.25693      160.66711    
     45500  -23858.477      141.64029     -23716.837      193.46741      181.21571      160.73258    
     45600  -23849.114      142.63586     -23706.478      193.43698      181.16737      160.79805    
     45700  -23840.285      143.40372     -23696.882      193.41103      181.12351      160.86353    
     45800  -23828.629      141.5238      -23687.105      193.38864      181.08489      160.929      
     45900  -23817.905      142.22896     -23675.676      193.36165      181.03995      160.99447    
     46000  -23805.582      144.42845     -23661.154      193.33101      180.99463      161.05994    
     46100  -23792.234      143.63209     -23648.601      193.3086       180.95405      161.12541    
     46200  -23784.189      143.68606     -23640.503      193.28535      180.9163       161.19088    
     46300  -23774.685      141.91982     -23632.765      193.25707      180.8724       161.25636    
     46400  -23761.013      139.2563      -23621.757      193.22827      180.82868      161.32183    
     46500  -23750.848      141.55563     -23609.292      193.20409      180.79131      161.3873     
     46600  -23739.446      145.32768     -23594.118      193.18014      180.75238      161.45277    
     46700  -23726.426      147.48138     -23578.945      193.14986      180.71026      161.51824    
     46800  -23716.23       145.079       -23571.151      193.12212      180.66945      161.58371    
     46900  -23706.579      144.09282     -23562.486      193.09612      180.63294      161.64918    
     47000  -23696.798      142.43619     -23554.362      193.06983      180.59419      161.71466    
     47100  -23686.42       140.82302     -23545.597      193.0406       180.55501      161.78013    
     47200  -23675.217      141.24851     -23533.969      193.01332      180.51805      161.8456     
     47300  -23661.481      142.85654     -23518.624      192.98754      180.48259      161.91107    
     47400  -23646.229      140.69063     -23505.538      192.95798      180.44509      161.97654    
     47500  -23639.69       143.65637     -23496.033      192.92721      180.40687      162.04201    
     47600  -23631.047      144.23677     -23486.81       192.90148      180.37365      162.10748    
     47700  -23620.241      143.38051     -23476.861      192.87619      180.34064      162.17296    
     47800  -23609.211      142.29132     -23466.92       192.84381      180.30302      162.23843    
     47900  -23597.094      140.14942     -23456.944      192.81094      180.26665      162.3039     
     48000  -23587.381      140.80888     -23446.572      192.78644      180.23624      162.36937    
     48100  -23573.358      140.10051     -23433.257      192.76113      180.20705      162.43484    
     48200  -23562.068      143.04156     -23419.026      192.72712      180.17029      162.50031    
     48300  -23550.997      143.8214      -23407.176      192.69306      180.13406      162.56579    
     48400  -23541.991      142.6525      -23399.339      192.66861      180.10623      162.63126    
     48500  -23532.981      141.18124     -23391.8        192.64198      180.07755      162.69673    
     48600  -23519.759      140.20162     -23379.557      192.6068       180.04344      162.7622     
     48700  -23508.4        142.74066     -23365.659      192.57599      180.01064      162.82767    
     48800  -23496.212      143.48745     -23352.724      192.54972      179.98539      162.89314    
     48900  -23486.065      143.79748     -23342.268      192.52165      179.95709      162.95861    
     49000  -23477.138      145.02555     -23332.113      192.48684      179.92471      163.02409    
     49100  -23462.473      140.53142     -23321.941      192.45516      179.89413      163.08956    
     49200  -23453.347      141.72861     -23311.618      192.42724      179.86873      163.15503    
     49300  -23442.093      141.98003     -23300.113      192.39858      179.84196      163.2205     
     49400  -23430.429      144.47616     -23285.953      192.36721      179.81247      163.28597    
     49500  -23417.914      145.14312     -23272.771      192.3345       179.78383      163.35144    
     49600  -23406.727      142.84137     -23263.885      192.30558      179.75677      163.41692    
     49700  -23399.101      142.31251     -23256.789      192.27828      179.7323       163.48239    
     49800  -23387.097      141.48372     -23245.613      192.24833      179.70474      163.54786    
     49900  -23372.026      139.75298     -23232.273      192.2166       179.67554      163.61333    
     50000  -23362.904      145.08167     -23217.823      192.18637      179.64869      163.6788     
     50100  -23349.96       146.8357      -23203.124      192.1583       179.62191      163.74427    
     50200  -23338.567      144.73374     -23193.833      192.12759      179.59439      163.80974    
     50300  -23329.981      142.49583     -23187.485      192.09892      179.56667      163.87522    
     50400  -23317.803      140.18499     -23177.618      192.07155      179.54239      163.94069    
     50500  -23306.947      140.14956     -23166.797      192.04478      179.5161       164.00616    
     50600  -23298.21       143.94728     -23154.263      192.01532      179.4871       164.07163    
     50700  -23283.905      144.33557     -23139.57       191.98684      179.45989      164.1371     
     50800  -23272.54       144.4117      -23128.129      191.96351      179.43473      164.20257    
     50900  -23264.08       142.2043      -23121.876      191.93677      179.40788      164.26805    
     51000  -23253.611      142.02141     -23111.59       191.90684      179.37685      164.33352    
     51100  -23242.493      144.05548     -23098.437      191.88014      179.34833      164.39899    
     51200  -23228.187      144.1514      -23084.036      191.85855      179.32397      164.46446    
     51300  -23216.594      145.65433     -23070.939      191.83485      179.29653      164.52993    
     51400  -23208.199      145.56102     -23062.638      191.80683      179.26442      164.5954     
     51500  -23195.116      140.16955     -23054.947      191.78449      179.23794      164.66087    
     51600  -23186.24       142.15515     -23044.085      191.76489      179.2134       164.72635    
     51700  -23171.815      140.63453     -23031.18       191.73888      179.18284      164.79182    
     51800  -23159.466      143.51937     -23015.946      191.71265      179.14984      164.85729    
     51900  -23150.444      147.46022     -23002.984      191.69301      179.12362      164.92276    
     52000  -23138.183      141.3441      -22996.839      191.674        179.09701      164.98823    
     52100  -23127.856      140.68357     -22987.172      191.65043      179.06534      165.0537     
     52200  -23118.792      143.96805     -22974.824      191.6278       179.033        165.11917    
     52300  -23108.947      148.07573     -22960.871      191.60974      179.00565      165.18465    
     52400  -23092.319      143.8326      -22948.487      191.5939       178.97867      165.25012    
     52500  -23082.205      140.90293     -22941.302      191.57298      178.94673      165.31559    
     52600  -23072.658      140.80364     -22931.854      191.55192      178.91443      165.38106    
     52700  -23060.721      141.47244     -22919.248      191.53634      178.88719      165.44653    
     52800  -23048.77       144.07215     -22904.698      191.5186       178.85794      165.512      
     52900  -23035.521      145.86975     -22889.651      191.49787      178.82366      165.57748    
     53000  -23023.248      146.32067     -22876.928      191.47852      178.79227      165.64295    
     53100  -23015.922      145.11366     -22870.808      191.46403      178.76328      165.70842    
     53200  -23003.73       141.91198     -22861.818      191.44857      178.73397      165.77389    
     53300  -22991.492      139.94701     -22851.545      191.43154      178.70274      165.83936    
     53400  -22982.471      142.77787     -22839.693      191.41382      178.67105      165.90483    
     53500  -22969.985      144.46189     -22825.523      191.39813      178.64028      165.9703     
     53600  -22956.345      145.57329     -22810.772      191.38225      178.60948      166.03578    
     53700  -22946.029      144.33019     -22801.699      191.36585      178.57878      166.10125    
     53800  -22935.876      142.01073     -22793.865      191.35129      178.54852      166.16672    
     53900  -22925.692      143.22201     -22782.47       191.33524      178.51742      166.23219    
     54000  -22913.337      142.79804     -22770.539      191.31892      178.4859       166.29766    
     54100  -22900.813      142.32154     -22758.491      191.30431      178.45622      166.36313    
     54200  -22892.386      144.2642      -22748.122      191.29003      178.42738      166.42861    
     54300  -22880.043      141.40576     -22738.637      191.27496      178.39601      166.49408    
     54400  -22869.703      141.85098     -22727.852      191.25781      178.36533      166.55955    
     54500  -22857.03       144.2017      -22712.828      191.24294      178.33525      166.62502    
     54600  -22842.692      145.46296     -22697.229      191.22837      178.30686      166.69049    
     54700  -22831.828      144.70762     -22687.12       191.21367      178.27792      166.75596    
     54800  -22820.935      142.57204     -22678.363      191.19538      178.24712      166.82143    
     54900  -22809.999      142.4541      -22667.544      191.17865      178.21693      166.88691    
     55000  -22799.45       142.25333     -22657.197      191.16514      178.18983      166.95238    
     55100  -22787.679      140.47878     -22647.201      191.14925      178.16222      167.01785    
     55200  -22778.708      141.59511     -22637.113      191.13151      178.13236      167.08332    
     55300  -22764.585      139.67026     -22624.915      191.1143       178.10555      167.14879    
     55400  -22754.75       146.11076     -22608.64       191.09823      178.07902      167.21426    
     55500  -22739.314      144.0444      -22595.269      191.08063      178.05144      167.27973    
     55600  -22729.617      144.00674     -22585.61       191.06199      178.0241       167.34521    
     55700  -22720.435      143.64753     -22576.788      191.04468      177.99786      167.41068    
     55800  -22708.081      142.87894     -22565.202      191.02871      177.97393      167.47615    
     55900  -22693.674      140.2581      -22553.416      191.01095      177.94841      167.54162    
     56000  -22683.204      141.53244     -22541.672      190.98894      177.92135      167.60709    
     56100  -22671.317      140.03587     -22531.281      190.97136      177.89685      167.67256    
     56200  -22660.018      138.88328     -22521.135      190.95432      177.87491      167.73804    
     56300  -22649.356      140.39481     -22508.961      190.93474      177.85017      167.80351    
     56400  -22634.873      141.36466     -22493.508      190.91334      177.82486      167.86898    
     56500  -22625.341      147.02866     -22478.312      190.8944       177.80217      167.93445    
     56600  -22615.033      145.98212     -22469.051      190.87515      177.77952      167.99992    
     56700  -22603.455      142.94894     -22460.506      190.8532       177.75595      168.06539    
     56800  -22590.357      141.18589     -22449.172      190.83406      177.73469      168.13086    
     56900  -22580.078      141.94898     -22438.129      190.81349      177.71404      168.19634    
     57000  -22567.934      139.99039     -22427.944      190.78978      177.69116      168.26181    
     57100  -22555.445      139.31764     -22416.128      190.76794      177.66938      168.32728    
     57200  -22544.198      142.57456     -22401.623      190.74607      177.64974      168.39275    
     57300  -22531.099      145.06592     -22386.033      190.72568      177.6305       168.45822    
     57400  -22519.939      144.30384     -22375.635      190.70122      177.60949      168.52369    
     57500  -22510.644      143.25249     -22367.392      190.67812      177.58967      168.58917    
     57600  -22498.91       142.55627     -22356.354      190.65863      177.57363      168.65464    
     57700  -22487.463      142.14037     -22345.322      190.63502      177.555        168.72011    
     57800  -22475.442      140.72338     -22334.718      190.60652      177.53216      168.78558    
     57900  -22463.823      139.86491     -22323.958      190.58362      177.51392      168.85105    
     58000  -22454.566      141.52662     -22313.04       190.56374      177.50061      168.91652    
     58100  -22440.832      142.16489     -22298.667      190.53959      177.48115      168.98199    
     58200  -22425.037      142.73634     -22282.301      190.51009      177.4601       169.04747    
     58300  -22412.657      143.18958     -22269.468      190.48517      177.44169      169.11294    
     58400  -22404.569      143.97324     -22260.596      190.46359      177.42653      169.17841    
     58500  -22392.226      141.75798     -22250.468      190.44045      177.41186      169.24388    
     58600  -22380.916      141.98996     -22238.926      190.41417      177.39155      169.30935    
     58700  -22369.09       141.36852     -22227.722      190.38655      177.37412      169.37482    
     58800  -22358.197      141.44395     -22216.754      190.36525      177.35869      169.4403     
     58900  -22348.288      141.62788     -22206.66       190.33919      177.34197      169.50577    
     59000  -22336.442      140.97886     -22195.463      190.31156      177.32276      169.57124    
     59100  -22323.027      143.05015     -22179.977      190.29029      177.30736      169.63671    
     59200  -22308.828      145.65539     -22163.173      190.26621      177.29406      169.70218    
     59300  -22296.726      144.74331     -22151.983      190.23964      177.27271      169.76765    
     59400  -22286.817      144.10533     -22142.712      190.2128       177.25483      169.83312    
     59500  -22276.113      144.89023     -22131.223      190.19062      177.2405       169.8986     
     59600  -22262.688      142.5419      -22120.146      190.16819      177.22412      169.96407    
     59700  -22252.297      142.68113     -22109.616      190.1406       177.2052       170.02954    
     59800  -22240.764      142.17985     -22098.584      190.11588      177.1856       170.09501    
     59900  -22231.19       140.79087     -22090.399      190.09361      177.1713       170.16048    
     60000  -22216.813      138.77908     -22078.034      190.07063      177.15359      170.22595    
     60100  -22202.048      140.69219     -22061.355      190.04433      177.13345      170.29142    
     60200  -22190.739      144.12062     -22046.618      190.02005      177.11538      170.3569     
     60300  -22178.854      144.71115     -22034.143      189.9991       177.09904      170.42237    
     60400  -22168.301      144.41578     -22023.885      189.97333      177.07788      170.48784    
     60500  -22153.941      140.54157     -22013.399      189.94939      177.05805      170.55331    
     60600  -22142.608      142.61384     -21999.994      189.93032      177.04276      170.61878    
     60700  -22129.927      143.08012     -21986.846      189.90775      177.02333      170.68425    
     60800  -22116.354      141.24032     -21975.114      189.88099      176.99876      170.74973    
     60900  -22106.205      140.4004      -21965.805      189.86004      176.97902      170.8152     
     61000  -22097.803      141.89832     -21955.905      189.8439       176.96433      170.88067    
     61100  -22083.805      142.91329     -21940.891      189.82304      176.94323      170.94614    
     61200  -22067.438      141.48707     -21925.951      189.79664      176.91646      171.01161    
     61300  -22054.06       142.61481     -21911.445      189.77663      176.89438      171.07708    
     61400  -22043.087      143.65673     -21899.43       189.76184      176.87812      171.14255    
     61500  -22034.265      144.24496     -21890.02       189.74176      176.85567      171.20803    
     61600  -22019.176      142.32597     -21876.85       189.71891      176.82971      171.2735     
     61700  -22005.414      142.07114     -21863.343      189.70085      176.80866      171.33897    
     61800  -21993.85       142.22236     -21851.627      189.68575      176.78801      171.40444    
     61900  -21983          141.66735     -21841.333      189.66448      176.76193      171.46991    
     62000  -21969.999      141.0568      -21828.943      189.64537      176.73779      171.53538    
     62100  -21958.377      143.39023     -21814.986      189.63196      176.71733      171.60086    
     62200  -21944.847      143.60912     -21801.238      189.61298      176.69187      171.66633    
     62300  -21930.803      142.15261     -21788.651      189.59145      176.66281      171.7318     
     62400  -21919.231      141.75863     -21777.473      189.57617      176.63973      171.79727    
     62500  -21907.121      140.92589     -21766.195      189.56412      176.61838      171.86274    
     62600  -21895.036      141.18426     -21753.852      189.54615      176.59128      171.92821    
     62700  -21883.761      142.03101     -21741.73       189.52645      176.56242      171.99368    
     62800  -21868.252      138.00873     -21730.244      189.51459      176.53857      172.05916    
     62900  -21857.884      142.62732     -21715.257      189.499        176.51449      172.12463    
     63000  -21840.205      142.87925     -21697.325      189.48202      176.48468      172.1901     
     63100  -21826.078      144.88393     -21681.194      189.46505      176.45644      172.25557    
     63200  -21814.202      142.31901     -21671.883      189.45115      176.4313       172.32104    
     63300  -21804.119      144.09921     -21660.02       189.43802      176.4051       172.38651    
     63400  -21790.196      142.82574     -21647.37       189.42148      176.37752      172.45199    
     63500  -21780.45       144.24257     -21636.207      189.40712      176.35089      172.51746    
     63600  -21765.941      142.29686     -21623.644      189.39316      176.32406      172.58293    
     63700  -21751.721      141.7879      -21609.934      189.37776      176.29686      172.6484     
     63800  -21740.063      143.17464     -21596.889      189.36135      176.26796      172.71387    
     63900  -21729.208      143.48239     -21585.726      189.34621      176.24064      172.77934    
     64000  -21712.629      141.41411     -21571.215      189.33111      176.21381      172.84481    
     64100  -21698.295      143.44704     -21554.848      189.31701      176.18668      172.91029    
     64200  -21683.318      146.08921     -21537.229      189.30031      176.15751      172.97576    
     64300  -21670.004      147.21095     -21522.793      189.28294      176.12866      173.04123    
     64400  -21656.622      143.67671     -21512.945      189.27048      176.10331      173.1067     
     64500  -21642.922      142.04281     -21500.88       189.25701      176.07768      173.17217    
     64600  -21629.915      141.4319      -21488.483      189.23676      176.04665      173.23764    
     64700  -21615.894      140.92454     -21474.969      189.22017      176.01932      173.30311    
     64800  -21602.951      141.3776      -21461.573      189.20992      175.99701      173.36859    
     64900  -21592.59       141.50277     -21451.087      189.19011      175.96834      173.43406    
     65000  -21577.519      140.64431     -21436.875      189.16979      175.93857      173.49953    
     65100  -21560.101      139.79144     -21420.31       189.15796      175.91635      173.565      
     65200  -21546.988      142.76047     -21404.227      189.141        175.89116      173.63047    
     65300  -21531.259      140.74704     -21390.512      189.11617      175.85897      173.69594    
     65400  -21519.197      143.04545     -21376.152      189.0973       175.83221      173.76142    
     65500  -21508.046      146.0036      -21362.042      189.08545      175.8135       173.82689    
     65600  -21492.279      143.00136     -21349.277      189.0653       175.78637      173.89236    
     65700  -21478.015      142.07035     -21335.945      189.04031      175.75604      173.95783    
     65800  -21460.894      140.05605     -21320.838      189.02312      175.73406      174.0233     
     65900  -21451.086      145.10825     -21305.977      189.00776      175.71203      174.08877    
     66000  -21434.326      139.84747     -21294.479      188.98385      175.68603      174.15424    
     66100  -21422.124      142.05207     -21280.072      188.96032      175.65856      174.21972    
     66200  -21404.752      141.42046     -21263.332      188.94315      175.63737      174.28519    
     66300  -21391.194      143.02503     -21248.169      188.92174      175.61504      174.35066    
     66400  -21376.164      141.09671     -21235.068      188.89588      175.58695      174.41613    
     66500  -21363.837      142.85825     -21220.979      188.87369      175.56432      174.4816     
     66600  -21346.671      141.34232     -21205.329      188.85461      175.54539      174.54707    
     66700  -21333.644      143.71316     -21189.931      188.83138      175.52083      174.61255    
     66800  -21320.136      140.67351     -21179.462      188.80429      175.49669      174.67802    
     66900  -21305.414      142.30138     -21163.113      188.78333      175.4768       174.74349    
     67000  -21289.16       143.67309     -21145.487      188.76108      175.45531      174.80896    
     67100  -21273.407      144.62873     -21128.778      188.73234      175.43141      174.87443    
     67200  -21258.701      142.62805     -21116.073      188.708        175.40994      174.9399     
     67300  -21243.815      142.81585     -21101          188.68467      175.38914      175.00537    
     67400  -21226.142      141.29885     -21084.843      188.65673      175.36695      175.07085    
     67500  -21214.248      144.8445      -21069.404      188.63275      175.34567      175.13632    
     67600  -21199.049      143.2072      -21055.842      188.60952      175.32738      175.20179    
     67700  -21184.263      144.40596     -21039.857      188.58036      175.30562      175.26726    
     67800  -21165.119      142.11108     -21023.008      188.55335      175.28165      175.33273    
     67900  -21149.604      141.76879     -21007.835      188.5281       175.26467      175.3982     
     68000  -21136.058      142.16911     -20993.888      188.50161      175.24418      175.46368    
     68100  -21119.238      142.67962     -20976.558      188.47333      175.2205       175.52915    
     68200  -21101.711      142.06842     -20959.643      188.44578      175.20365      175.59462    
     68300  -21085.74       141.47963     -20944.26       188.42179      175.18494      175.66009    
     68400  -21073.305      145.4089      -20927.896      188.39163      175.16223      175.72556    
     68500  -21055.61       143.59472     -20912.016      188.36175      175.14398      175.79103    
     68600  -21040.05       142.84056     -20897.209      188.33873      175.12559      175.8565     
     68700  -21025.28       144.03118     -20881.249      188.30952      175.10577      175.92198    
     68800  -21006.623      141.87294     -20864.75       188.27832      175.08474      175.98745    
     68900  -20989.95       142.05784     -20847.892      188.25233      175.06421      176.05292    
     69000  -20972.953      141.95373     -20830.999      188.22377      175.04609      176.11839    
     69100  -20956.936      142.13689     -20814.8        188.19567      175.02624      176.18386    
     69200  -20942.039      145.00868     -20797.03       188.16782      175.0047       176.24933    
     69300  -20923.739      142.67602     -20781.063      188.13806      174.98594      176.3148     
     69400  -20906.447      141.50211     -20764.944      188.11185      174.96591      176.38028    
     69500  -20891.468      143.31502     -20748.153      188.08504      174.94685      176.44575    
     69600  -20873.996      142.05661     -20731.939      188.05373      174.92544      176.51122    
     69700  -20860.609      144.92877     -20715.68       188.02689      174.90291      176.57669    
     69800  -20844.49       144.7428      -20699.747      188.00109      174.88721      176.64216    
     69900  -20825.766      142.79052     -20682.975      187.97229      174.86442      176.70763    
     70000  -20809.448      144.43144     -20665.016      187.94315      174.84054      176.77311    
     70100  -20790.1        143.01054     -20647.09       187.91756      174.82412      176.83858    
     70200  -20774.427      145.40241     -20629.025      187.89264      174.80323      176.90405    
     70300  -20756.056      144.45489     -20611.601      187.86148      174.77819      176.96952    
     70400  -20739.302      144.51557     -20594.786      187.83403      174.75692      177.03499    
     70500  -20721.482      143.87828     -20577.604      187.81205      174.73856      177.10046    
     70600  -20705.658      144.68301     -20560.975      187.78315      174.71558      177.16593    
     70700  -20688.543      144.71847     -20543.825      187.75495      174.69143      177.23141    
     70800  -20667.63       142.34173     -20525.288      187.73063      174.67098      177.29688    
     70900  -20652.173      144.87873     -20507.295      187.70426      174.6487       177.36235    
     71000  -20637.109      147.58484     -20489.524      187.67759      174.62429      177.42782    
     71100  -20616.369      144.44884     -20471.921      187.65146      174.60166      177.49329    
     71200  -20600.498      144.55551     -20455.943      187.62684      174.57908      177.55876    
     71300  -20581.024      144.4497      -20436.574      187.6021       174.55601      177.62424    
     71400  -20564.163      145.63637     -20418.527      187.57583      174.53215      177.68971    
     71500  -20547.569      146.24748     -20401.322      187.55163      174.50814      177.75518    
     71600  -20531.63       148.73346     -20382.897      187.52703      174.48495      177.82065    
     71700  -20508.843      144.92132     -20363.922      187.50248      174.46099      177.88612    
     71800  -20489.604      144.5326      -20345.072      187.47867      174.43558      177.95159    
     71900  -20472.48       145.8764      -20326.604      187.45313      174.4116       178.01706    
     72000  -20454.615      145.27585     -20309.339      187.43042      174.38666      178.08254    
     72100  -20438.291      146.73231     -20291.559      187.40637      174.36179      178.14801    
     72200  -20418.594      144.87011     -20273.724      187.38179      174.33686      178.21348    
     72300  -20399.606      146.06045     -20253.546      187.36021      174.31105      178.27895    
     72400  -20382.815      148.16495     -20234.65       187.33587      174.28653      178.34442    
     72500  -20364.046      149.59957     -20214.446      187.31294      174.25988      178.40989    
     72600  -20346.947      150.07561     -20196.871      187.2898       174.23326      178.47536    
[...]
     81600  -26481.882      143.33593     -26338.546      188.39434      173.85961      184.3678     
     81700  -26483.19       134.55331     -26348.637      188.46059      173.89467      184.43327    
     81800  -26485.99       139.45395     -26346.536      188.54072      173.94189      184.49874    
     81900  -26484.227      145.84244     -26338.385      188.6104       173.97862      184.56422    
     82000  -26478.176      143.19841     -26334.978      188.68277      174.0153       184.62969    
     82100  -26484.087      144.3         -26339.787      188.75515      174.05289      184.69516    
     82200  -26489.034      139.74778     -26349.286      188.8058       174.08837      184.76063    
     82300  -26489.995      136.06799     -26353.927      188.84437      174.13012      184.8261     
     82400  -26492.889      142.78822     -26350.101      188.89174      174.1819       184.89157    
     82500  -26489.705      145.42812     -26344.276      188.92863      174.22757      184.95705    
     82600  -26489.81       145.61403     -26344.196      188.96264      174.2715       185.02252    
     82700  -26494.941      144.58031     -26350.361      188.9909       174.31011      185.08799    
     82800  -26497.626      137.9421      -26359.684      189.01394      174.35132      185.15346    
     82900  -26502.513      137.37144     -26365.141      189.02677      174.38912      185.21893    
     83000  -26509.651      144.27476     -26365.377      189.04275      174.43092      185.2844     
     83100  -26509.032      141.66321     -26367.368      189.06403      174.47293      185.34987    
     83200  -26512.021      140.48855     -26371.533      189.06668      174.49362      185.41535    
     83300  -26514.565      140.77101     -26373.794      189.06937      174.5204       185.48082    
     83400  -26512.789      140.44949     -26372.339      189.07811      174.55828      185.54629    
     83500  -26514.375      144.61992     -26369.755      189.07877      174.57993      185.61176    
     83600  -26515.612      143.81665     -26371.795      189.07889      174.60494      185.67723    
     83700  -26517.449      142.87527     -26374.574      189.09052      174.64049      185.7427     
     83800  -26514.294      138.58387     -26375.711      189.11487      174.69278      185.80818    
     83900  -26521.166      145.50052     -26375.665      189.14079      174.73164      185.87365    
     84000  -26523.209      144.51264     -26378.696      189.1721       174.76466      185.93912    
     84100  -26528.62       143.14206     -26385.478      189.2077       174.79324      186.00459    
     84200  -26532.426      139.03345     -26393.393      189.25073      174.81573      186.07006    
     84300  -26535.55       139.38214     -26396.168      189.28955      174.82202      186.13553    
     84400  -26528.347      137.19733     -26391.149      189.33224      174.81715      186.201      
     84500  -26521.26       142.87727     -26378.383      189.37582      174.81352      186.26648    
     84600  -26515.846      149.10526     -26366.741      189.41993      174.81405      186.33195    
     84700  -26513.997      147.00843     -26366.989      189.47312      174.82039      186.39742    
     84800  -26515.922      141.4138      -26374.508      189.52022      174.82274      186.46289    
     84900  -26521.929      140.97507     -26380.954      189.56714      174.82714      186.52836    
     85000  -26517.327      136.91311     -26380.414      189.61058      174.82622      186.59383    
     85100  -26517.201      144.38406     -26372.817      189.64399      174.81145      186.65931    
     85200  -26515.028      149.07934     -26365.949      189.67721      174.80211      186.72478    
     85300  -26516.237      147.97455     -26368.262      189.70989      174.79556      186.79025    
     85400  -26522.519      139.51192     -26383.007      189.7375       174.78491      186.85572    
     85500  -26532.901      139.21375     -26393.687      189.76996      174.76943      186.92119    
     85600  -26530.827      136.04823     -26394.779      189.81416      174.76538      186.98666    
     85700  -26528.559      142.08826     -26386.471      189.85716      174.75325      187.05213    
     85800  -26523.208      146.28694     -26376.921      189.89501      174.73397      187.11761    
     85900  -26521.633      146.96519     -26374.668      189.943        174.72028      187.18308    
     86000  -26520.169      139.69937     -26380.47       190.00036      174.70826      187.24855    
     86100  -26530.083      143.476       -26386.607      190.04743      174.68567      187.31402    
     86200  -26528.939      139.39492     -26389.544      190.09801      174.66929      187.37949    
     86300  -26529.933      142.73253     -26387.2        190.15661      174.65558      187.44496    
     86400  -26526.886      143.91322     -26382.973      190.20744      174.6415       187.51043    
     86500  -26528.83       147.19536     -26381.635      190.24789      174.62736      187.57591    
     86600  -26524.95       140.07617     -26384.874      190.29605      174.61621      187.64138    
     86700  -26527.583      139.08872     -26388.494      190.343        174.60532      187.70685    
     86800  -26526.793      140.26299     -26386.53       190.38001      174.58868      187.77232    
     86900  -26526.024      144.20117     -26381.823      190.42649      174.59103      187.83779    
     87000  -26529.255      146.94871     -26382.306      190.46483      174.59529      187.90326    
     87100  -26533.982      142.77856     -26391.203      190.49057      174.59466      187.96874    
     87200  -26535.5        136.3684      -26399.132      190.52374      174.59975      188.03421    
     87300  -26538.165      139.41082     -26398.754      190.555        174.60627      188.09968    
     87400  -26531.477      140.49245     -26390.984      190.57007      174.60702      188.16515    
     87500  -26528.471      146.9762      -26381.494      190.58033      174.61539      188.23062    
     87600  -26528.989      148.0462      -26380.942      190.59026      174.62881      188.29609    
     87700  -26537.933      145.98006     -26391.953      190.59554      174.64122      188.36156    
     87800  -26543.469      138.30509     -26405.164      190.59254      174.64963      188.42704    
     87900  -26544.119      134.96866     -26409.15       190.58579      174.65521      188.49251    
     88000  -26542.266      140.556       -26401.71       190.58718      174.66794      188.55798    
     88100  -26535.274      144.07631     -26391.198      190.59393      174.68254      188.62345    
     88200  -26534.014      146.65222     -26387.362      190.59134      174.68681      188.68892    
     88300  -26537.111      143.97116     -26393.14       190.58887      174.6942       188.75439    
     88400  -26541.195      140.14121     -26401.054      190.59013      174.70246      188.81987    
     88500  -26542.636      138.65941     -26403.977      190.59114      174.70828      188.88534    
     88600  -26537.262      139.97631     -26397.286      190.58593      174.71247      188.95081    
     88700  -26532.169      144.60865     -26387.561      190.58912      174.72626      189.01628    
     88800  -26534.289      150.49855     -26383.79       190.59692      174.74507      189.08175    
     88900  -26530.993      140.47869     -26390.514      190.59753      174.7573       189.14722    
     89000  -26537.839      137.79236     -26400.047      190.60182      174.76794      189.21269    
     89100  -26540.461      138.5828      -26401.878      190.60936      174.77292      189.27817    
     89200  -26536.603      141.58172     -26395.022      190.61085      174.77573      189.34364    
     89300  -26533.928      147.11        -26386.818      190.61751      174.78841      189.40911    
     89400  -26533.968      147.43361     -26386.535      190.62162      174.79975      189.47458    
     89500  -26537.879      144.10213     -26393.777      190.61399      174.79987      189.54005    
     89600  -26539.531      138.37636     -26401.155      190.61342      174.8065       189.60552    
     89700  -26542.152      139.52347     -26402.628      190.61998      174.81652      189.67099    
     89800  -26539.017      140.80095     -26398.216      190.62014      174.82692      189.73647    
     89900  -26535.579      143.44954     -26392.129      190.61895      174.83618      189.80194    
     90000  -26535.215      144.05675     -26391.158      190.62118      174.8508       189.86741    
     90100  -26535.109      140.22494     -26394.884      190.61701      174.85969      189.93288    
     90200  -26537.886      140.75517     -26397.131      190.60703      174.86774      189.99835    
     90300  -26535.673      140.96065     -26394.712      190.59777      174.87948      190.06382    
     90400  -26535.725      145.05847     -26390.667      190.59573      174.90187      190.1293     
     90500  -26534.242      146.14213     -26388.1        190.5925       174.92314      190.19477    
     90600  -26535.266      145.45996     -26389.806      190.58215      174.93779      190.26024    
     90700  -26536.84       142.31667     -26394.523      190.56857      174.95409      190.32571    
     90800  -26537.255      139.75426     -26397.501      190.56737      174.97622      190.39118    
     90900  -26538.393      142.50376     -26395.889      190.56264      174.99346      190.45665    
     91000  -26535.404      142.16292     -26393.241      190.55208      175.00915      190.52212    
     91100  -26536.567      141.52395     -26395.043      190.54128      175.02211      190.5876     
     91200  -26536.382      140.61914     -26395.763      190.5351       175.03331      190.65307    
     91300  -26536.826      143.10099     -26393.725      190.53518      175.04996      190.71854    
     91400  -26533.469      141.14613     -26392.323      190.53272      175.05922      190.78401    
     91500  -26538.287      144.93985     -26393.348      190.53557      175.06435      190.84948    
     91600  -26539.589      143.60154     -26395.988      190.54418      175.07503      190.91495    
     91700  -26540.588      141.9715      -26398.617      190.55442      175.08148      190.98043    
     91800  -26539.091      140.15092     -26398.94       190.55736      175.07351      191.0459     
     91900  -26539.422      142.78392     -26396.638      190.56537      175.06799      191.11137    
     92000  -26537.468      143.64004     -26393.828      190.57671      175.0629       191.17684    
     92100  -26537.822      143.90439     -26393.917      190.58897      175.05558      191.24231    
     92200  -26539.719      143.1488      -26396.57       190.60315      175.04793      191.30778    
     92300  -26541.202      141.98717     -26399.215      190.61442      175.03938      191.37325    
     92400  -26540.915      141.68027     -26399.234      190.62621      175.02673      191.43873    
     92500  -26535.908      140.72551     -26395.183      190.64254      175.01162      191.5042     
     92600  -26532.726      143.2197      -26389.506      190.66974      175.00206      191.56967    
     92700  -26532.079      145.25389     -26386.825      190.69063      174.98191      191.63514    
     92800  -26532.273      141.9542      -26390.319      190.71067      174.95809      191.70061    
     92900  -26540.046      142.09684     -26397.949      190.739        174.93812      191.76608    
     93000  -26541.164      138.64        -26402.524      190.75919      174.90968      191.83156    
     93100  -26537.623      137.26272     -26400.36       190.77572      174.87642      191.89703    
     93200  -26534.986      141.78613     -26393.2        190.80518      174.85099      191.9625     
     93300  -26531.551      144.66493     -26386.886      190.83798      174.83013      192.02797    
     93400  -26535.321      148.04874     -26387.272      190.8625       174.80844      192.09344    
     93500  -26537.425      142.60133     -26394.823      190.8884       174.78857      192.15891    
     93600  -26540.321      138.38273     -26401.938      190.90802      174.7638       192.22438    
     93700  -26540.61       139.6237      -26400.987      190.93304      174.74555      192.28986    
     93800  -26536.272      143.3853      -26392.887      190.96135      174.72931      192.35533    
     93900  -26533.303      146.67683     -26386.626      190.97868      174.70504      192.4208     
     94000  -26535.109      146.78045     -26388.329      190.99278      174.67993      192.48627    
     94100  -26538.076      140.90354     -26397.172      191.01501      174.66277      192.55174    
     94200  -26541.608      137.84944     -26403.759      191.03488      174.64878      192.61721    
     94300  -26539.235      135.84506     -26403.39       191.04658      174.63411      192.68268    
     94400  -26536.276      140.59914     -26395.677      191.05458      174.6192       192.74816    
     94500  -26531.694      144.33349     -26387.361      191.06267      174.60986      192.81363    
     94600  -26532.72       147.49926     -26385.221      191.06773      174.60374      192.8791     
     94700  -26535.918      143.7443      -26392.174      191.06332      174.59596      192.94457    
     94800  -26541.513      140.18599     -26401.327      191.05791      174.58819      193.01004    
     94900  -26540.107      135.80802     -26404.299      191.0516       174.58102      193.07551    
     95000  -26540.657      142.37692     -26398.28       191.04063      174.5775       193.14099    
     95100  -26532.988      144.06528     -26388.922      191.02619      174.57379      193.20646    
     95200  -26531.188      146.84686     -26384.341      191.01628      174.57709      193.27193    
     95300  -26532.468      143.85945     -26388.609      191.00467      174.58323      193.3374     
     95400  -26538.374      140.98038     -26397.393      190.98747      174.58453      193.40287    
     95500  -26538.576      135.55988     -26403.016      190.96715      174.58915      193.46834    
     95600  -26539.936      138.91996     -26401.016      190.95228      174.6016       193.53381    
     95700  -26536.224      143.21893     -26393.005      190.93417      174.61254      193.59929    
     95800  -26535.111      148.84281     -26386.268      190.90843      174.6255       193.66476    
     95900  -26530.23       144.05929     -26386.17       190.88926      174.64001      193.73023    
     96000  -26535.7        145.54824     -26390.151      190.86689      174.65614      193.7957     
     96100  -26544.655      142.16428     -26402.49       190.83657      174.67073      193.86117    
     96200  -26544.273      136.56707     -26407.706      190.80913      174.6885       193.92664    
     96300  -26540.505      138.39046     -26402.115      190.783        174.70858      193.99212    
     96400  -26539.038      147.52443     -26391.513      190.75239      174.72269      194.05759    
     96500  -26533.181      146.66896     -26386.512      190.72013      174.73742      194.12306    
     96600  -26535.764      144.03118     -26391.733      190.68993      174.75139      194.18853    
     96700  -26541.611      139.8133      -26401.798      190.66123      174.76668      194.254      
     96800  -26543.044      136.64042     -26406.403      190.63083      174.77851      194.31947    
     96900  -26541.13       139.6353      -26401.495      190.60391      174.79267      194.38494    
     97000  -26535.65       144.01491     -26391.636      190.57787      174.80851      194.45042    
     97100  -26533.981      148.30424     -26385.676      190.54732      174.81481      194.51589    
     97200  -26533.451      143.78666     -26389.664      190.52309      174.82465      194.58136    
     97300  -26541.613      142.33313     -26399.28       190.50092      174.83454      194.64683    
     97400  -26543.191      137.68972     -26405.501      190.47731      174.83914      194.7123     
     97500  -26541.627      138.41296     -26403.214      190.45823      174.84528      194.77777    
     97600  -26538.192      144.06841     -26394.123      190.43733      174.85355      194.84325    
     97700  -26534.682      147.7444      -26386.938      190.41368      174.85299      194.90872    
     97800  -26533.51       145.98958     -26387.521      190.3939       174.84577      194.97419    
     97900  -26537.163      141.59        -26395.573      190.382        174.84781      195.03966    
     98000  -26542.342      139.28654     -26403.056      190.36686      174.845        195.10513    
     98100  -26543.434      140.03678     -26403.398      190.35262      174.83895      195.1706     
     98200  -26538.786      141.84015     -26396.945      190.34179      174.83423      195.23607    
     98300  -26535.472      146.76176     -26388.71       190.32908      174.8226       195.30155    
     98400  -26533.347      146.60727     -26386.74       190.32242      174.80913      195.36702    
     98500  -26535.918      143.82398     -26392.094      190.32584      174.8047       195.43249    
     98600  -26541.778      141.12343     -26400.655      190.33381      174.79698      195.49796    
     98700  -26542.3        137.70116     -26404.599      190.34009      174.78792      195.56343    
     98800  -26543.163      141.89119     -26401.272      190.3484       174.77884      195.6289     
     98900  -26538.078      144.83012     -26393.248      190.35613      174.75818      195.69437    
     99000  -26533.042      145.66893     -26387.373      190.35784      174.72653      195.75985    
     99100  -26536.493      146.73767     -26389.756      190.36186      174.69933      195.82532    
     99200  -26540.173      141.76822     -26398.405      190.36921      174.67227      195.89079    
     99300  -26541.747      138.60364     -26403.143      190.37349      174.64237      195.95626    
     99400  -26542.526      142.11135     -26400.415      190.38116      174.61372      196.02173    
     99500  -26535.533      142.30493     -26393.228      190.39687      174.58921      196.0872     
     99600  -26534.195      145.74747     -26388.448      190.41151      174.56206      196.15268    
     99700  -26534.538      144.56716     -26389.971      190.42355      174.5289       196.21815    
     99800  -26538.307      141.41263     -26396.894      190.44216      174.49466      196.28362    
     99900  -26543.409      140.34998     -26403.059      190.46015      174.46085      196.34909    
    100000  -26546.303      142.84152     -26403.461      190.47074      174.41985      196.41456    
Loop time of 5289.15 on 12 procs for 100000 steps with 3672 atoms

Performance: 1.634 ns/day, 14.692 hours/ns, 18.907 timesteps/s, 69.425 katom-step/s
81.6% CPU use with 12 MPI tasks x 1 OpenMP threads

MPI task timing breakdown:
Section |  min time  |  avg time  |  max time  |%varavg| %total
---------------------------------------------------------------
Pair    | 0.21162    | 574.74     | 1928.6     |3410.2 | 10.87
Neigh   | 0.0044545  | 1.2833     | 4.9095     | 167.6 |  0.02
Comm    | 1.0816     | 270.99     | 982.69     |2386.5 |  5.12
Output  | 10.106     | 10.429     | 10.931     |   9.5 |  0.20
Modify  | 2425.5     | 4131       | 4982       |1860.9 | 78.10
Other   |            | 300.7      |            |       |  5.68

Nlocal:            306 ave        1380 max           0 min
Histogram: 8 0 0 2 0 0 0 0 0 2
Nghost:        506.417 ave        1790 max           0 min
Histogram: 8 0 0 0 0 0 2 0 0 2
Neighs:              0 ave           0 max           0 min
Histogram: 12 0 0 0 0 0 0 0 0 0

Total # of neighbors = 0
Ave neighs/atom = 0
Neighbor list builds = 364
Dangerous builds = 0
Total wall time: 1:28:10
