LAMMPS (2 Aug 2023 - Update 3)
OMP_NUM_THREADS environment is not set. Defaulting to 1 thread. (src/comm.cpp:98)
  using 1 OpenMP thread(s) per MPI task

# 1------general---------------
units                             metal      #单位为lammps 中的metel 类型
dimension                    3          #模拟的维度 三维
boundary                    p p p      #周期边界条件
atom_style                  atomic   #原子类型自动
atom_modify              map array sort 100 2.0
neighbor                    3.0 bin
neigh_modify            every 1 delay 0 check yes
#2 -----global variable-------定义全局变量，方便统一修改；
variable temperature equal 300
variable tstep equal 0.001
variable pressure equal 0
variable thermalstep equal 100
variable dumpstep equal 1000
variable relaxtime equal 0
variable totaltime equal 100000
variable deformrate equal 5e-3
#3 -------model------------
#box tilt large
read_data     1.lmp
Reading data file ...
  orthogonal box = (-100 -100 -2.331251) to (100 100 38.891558)
  3 by 4 by 1 MPI processor grid
  reading atoms ...
  920 atoms
  read_data CPU = 0.140 seconds
replicate 1 1 15
Replication is creating a 1x1x15 = 15 times larger system...
  orthogonal box = (-100 -100 -2.331251) to (100 100 616.01088)
  1 by 2 by 6 MPI processor grid
  13800 atoms
  replicate CPU = 0.176 seconds
group SR type 2
3600 atoms in group SR
delete_atoms group SR
Deleted 3600 atoms, new total = 10200

write_data l.data
System init for write_data ...
WARNING: Communication cutoff is 0.0. No ghost atoms will be generated. Atoms may get lost. (src/comm_brick.cpp:210)

pair_style hybrid airebo 3.0 airebo 3.0  lj/cut 10
pair_coeff * * airebo 1 CH.airebo C NULL
Reading airebo potential file CH.airebo with DATE: 2011-10-25
pair_coeff * * airebo 2 CH.airebo NULL C
Reading airebo potential file CH.airebo with DATE: 2011-10-25
pair_coeff 1 2 lj/cut 0.00456 3.431

# 5------minimize -----------
min_style      sd
minimize       1.0e-4 1.0e-6 100 1000
Neighbor list info ...
  update: every = 1 steps, delay = 0 steps, check = yes
  max neighbors/atom: 2000, page size: 100000
  master list distance cutoff = 13.2
  ghost atom cutoff = 13.2
  binsize = 6.6, bins = 31 31 94
  5 neighbor lists, perpetual/occasional/extra = 5 0 0
  (1) pair airebo, perpetual, skip from (4)
      attributes: full, newton on, ghost
      pair build: skip/ghost
      stencil: none
      bin: none
  (2) pair airebo, perpetual, skip from (4)
      attributes: full, newton on, ghost
      pair build: skip/ghost
      stencil: none
      bin: none
  (3) pair lj/cut, perpetual, skip from (5)
      attributes: half, newton on, cut 13
      pair build: skip
      stencil: none
      bin: none
  (4) neighbor class addition, perpetual
      attributes: full, newton on, ghost
      pair build: full/bin/ghost
      stencil: full/ghost/bin/3d
      bin: standard
  (5) neighbor class addition, perpetual
      attributes: half, newton on, cut 13
      pair build: half/bin/atomonly/newton
      stencil: half/bin/3d
      bin: standard
Per MPI rank memory allocation (min/avg/max) = 10.2 | 10.42 | 10.58 Mbytes
   Step          Temp          E_pair         E_mol          TotEng         Press     
         0   0             -75475.662      0             -75475.662     -0.21847277   
         1   0             -75476.024      0             -75476.024     -0.39920433   
Loop time of 0.327671 on 12 procs for 1 steps with 10200 atoms

55.5% CPU use with 12 MPI tasks x 1 OpenMP threads

Minimization stats:
  Stopping criterion = energy tolerance
  Energy initial, next-to-last, final = 
     -75475.6619639413  -75475.6619639413  -75476.0240505051
  Force two-norm initial, final = 9.9182188 0.95041925
  Force max component initial, final = 0.098019031 0.0093756234
  Final line search alpha, max atom move = 1 0.0093756234
  Iterations, force evaluations = 1 2

MPI task timing breakdown:
Section |  min time  |  avg time  |  max time  |%varavg| %total
---------------------------------------------------------------
Pair    | 0.036162   | 0.047474   | 0.056366   |   3.0 | 14.49
Neigh   | 0          | 0          | 0          |   0.0 |  0.00
Comm    | 0.026634   | 0.053224   | 0.079542   |   6.7 | 16.24
Output  | 0          | 0          | 0          |   0.0 |  0.00
Modify  | 0          | 0          | 0          |   0.0 |  0.00
Other   |            | 0.227      |            |       | 69.27

Nlocal:            850 ave         893 max         807 min
Histogram: 6 0 0 0 0 0 0 0 0 6
Nghost:           1270 ave        1313 max        1227 min
Histogram: 6 0 0 0 0 0 0 0 0 6
Neighs:              0 ave           0 max           0 min
Histogram: 12 0 0 0 0 0 0 0 0 0

Total # of neighbors = 0
Ave neighs/atom = 0
Neighbor list builds = 0
Dangerous builds = 0
#6----define computes------
variable nums equal count(all) #计算原子数目
variable toval equal 13.369*13.369*lz #计算系统总体积，单层石墨烯厚度为0.335nm
variable vol equal ${toval} #体系的初始体积
variable vol equal 110516.389341634 
variable vatom equal v_vol/v_nums #单个原子体积
compute 1 all stress/atom NULL #计算体系中单原子应力
compute xalls all reduce sum c_1[1]
variable xstress equal (c_xalls)/(v_toval*10000)
compute yalls all reduce sum c_1[2]
variable ystress equal (c_yalls)/(v_toval*10000)
compute zalls all reduce sum c_1[3]
variable zstress equal (c_zalls)/(v_toval*10000)
#7---------relaxation-------------------------
timestep ${tstep}
timestep 0.001
#------------5 温度初始化------------------------------
velocity all create 300 4928459 dist gaussian units box
#------------------------------------------------------
dump   1 all atom 100 all-cy.lammpstrj
#fix    1 all npt temp 300 300  0.1 aniso 0 0  drag 1  #三个方向独立控压
fix  s all npt temp ${temperature} ${temperature} 0.1 y ${pressure} ${pressure} 10 x ${pressure} ${pressure} 10
fix  s all npt temp 300 ${temperature} 0.1 y ${pressure} ${pressure} 10 x ${pressure} ${pressure} 10
fix  s all npt temp 300 300 0.1 y ${pressure} ${pressure} 10 x ${pressure} ${pressure} 10
fix  s all npt temp 300 300 0.1 y 0 ${pressure} 10 x ${pressure} ${pressure} 10
fix  s all npt temp 300 300 0.1 y 0 0 10 x ${pressure} ${pressure} 10
fix  s all npt temp 300 300 0.1 y 0 0 10 x 0 ${pressure} 10
fix  s all npt temp 300 300 0.1 y 0 0 10 x 0 0 10
thermo                1000
thermo_modify       lost ignore
compute  2 all pe/atom
compute  pe all reduce sum c_2
variable PE equal "c_pe"
fix    pe all print 100 "${PE} " file PE.txt screen no
thermo  ${thermalstep}
thermo  100
#thermo_style  custom step pe ke etotal lx ly lz
run   ${relaxtime}
run   0
Per MPI rank memory allocation (min/avg/max) = 10.82 | 11.05 | 11.21 Mbytes
   Step          Temp          E_pair         E_mol          TotEng         Press          Volume    
         1   300           -75476.024      0             -75080.527      16.680241      24733685     
Loop time of 0.0153324 on 12 procs for 0 steps with 10200 atoms

56.5% CPU use with 12 MPI tasks x 1 OpenMP threads

MPI task timing breakdown:
Section |  min time  |  avg time  |  max time  |%varavg| %total
---------------------------------------------------------------
Pair    | 0          | 0          | 0          |   0.0 |  0.00
Neigh   | 0          | 0          | 0          |   0.0 |  0.00
Comm    | 0          | 0          | 0          |   0.0 |  0.00
Output  | 0          | 0          | 0          |   0.0 |  0.00
Modify  | 0          | 0          | 0          |   0.0 |  0.00
Other   |            | 0.01533    |            |       |100.00

Nlocal:            850 ave         850 max         850 min
Histogram: 12 0 0 0 0 0 0 0 0 0
Nghost:           1270 ave        1270 max        1270 min
Histogram: 12 0 0 0 0 0 0 0 0 0
Neighs:              0 ave           0 max           0 min
Histogram: 12 0 0 0 0 0 0 0 0 0

Total # of neighbors = 0
Ave neighs/atom = 0
Neighbor list builds = 0
Dangerous builds = 0
#8 -------tension-----------------------------
unfix s
undump  1
unfix  pe
reset_timestep 0
fix avestress all ave/atom 1 ${dumpstep} ${dumpstep} c_1[1] c_1[2] c_1[3] c_1[4] c_1[5] c_1[6]
fix avestress all ave/atom 1 1000 ${dumpstep} c_1[1] c_1[2] c_1[3] c_1[4] c_1[5] c_1[6]
fix avestress all ave/atom 1 1000 1000 c_1[1] c_1[2] c_1[3] c_1[4] c_1[5] c_1[6]

#-----calculation of strain and Cumulative compression--------
variable                tmp equal "lz"
variable                L0 equal ${tmp}
variable                L0 equal 618.342135
variable                strain equal "(lz - v_L0)/v_L0"
variable                Cumulativels equal "(lz - v_L0)/10"
fix Step all print 100 "${strain} ${Cumulativels} ${zstress}" file grapoten.txt screen no

dump 2 all custom ${dumpstep} tension.xyz type x y z f_avestress[1] f_avestress[2] f_avestress[3] f_avestress[4] f_avestress[5] f_avestress[6]
dump 2 all custom 1000 tension.xyz type x y z f_avestress[1] f_avestress[2] f_avestress[3] f_avestress[4] f_avestress[5] f_avestress[6]

fix  1 all npt temp ${temperature} ${temperature} 0.1 y ${pressure} ${pressure} 10 x ${pressure} ${pressure} 10
fix  1 all npt temp 300 ${temperature} 0.1 y ${pressure} ${pressure} 10 x ${pressure} ${pressure} 10
fix  1 all npt temp 300 300 0.1 y ${pressure} ${pressure} 10 x ${pressure} ${pressure} 10
fix  1 all npt temp 300 300 0.1 y 0 ${pressure} 10 x ${pressure} ${pressure} 10
fix  1 all npt temp 300 300 0.1 y 0 0 10 x ${pressure} ${pressure} 10
fix  1 all npt temp 300 300 0.1 y 0 0 10 x 0 ${pressure} 10
fix  1 all npt temp 300 300 0.1 y 0 0 10 x 0 0 10

thermo_style custom step pe ke etotal lx ly lz
WARNING: New thermo_style command, previous thermo_modify settings will be lost (src/output.cpp:903)
fix   2 all deform 1 z erate ${deformrate} remap x units box
fix   2 all deform 1 z erate 0.005 remap x units box
fix   3 all ave/time 2 500 1000 v_xstress v_ystress v_zstress file pressure.out
run   ${totaltime}
run   100000
WARNING: Dump 2 includes no atom IDs and is not sorted by ID. This may complicate post-processing tasks or visualization (src/dump.cpp:221)
Per MPI rank memory allocation (min/avg/max) = 12.32 | 12.55 | 12.71 Mbytes
   Step         PotEng         KinEng         TotEng           Lx             Ly             Lz      
         0  -75476.024      395.49727     -75080.527      200            200            618.34214    
       100  -75244.994      193.28166     -75051.712      200.0058       200.00744      618.65131    
       200  -75257.385      245.54353     -75011.842      200.00349      200.00692      618.96048    
       300  -75224.521      260.19419     -74964.327      200.00969      200.01525      619.26965    
       400  -75186.343      274.36012     -74911.983      200.00647      200.01477      619.57882    
       500  -75167.875      311.03098     -74856.844      200.01309      200.02445      619.88799    
       600  -75133.745      332.64338     -74801.102      200.00711      200.02219      620.19716    
       700  -75111.357      363.22984     -74748.127      200.01426      200.03337      620.50633    
       800  -75086.783      384.68048     -74702.102      200.00787      200.0317       620.8155     
       900  -75079.025      409.85011     -74669.175      200.01388      200.04297      621.12467    
      1000  -75067.875      410.30929     -74657.565      200.00613      200.04084      621.43385    
      1100  -75071.148      401.58274     -74669.565      200.01084      200.05169      621.74302    
      1200  -75084.583      396.1799      -74688.403      200.00345      200.05077      622.05219    
      1300  -75086.795      389.46869     -74697.326      200.00703      200.06119      622.36136    
      1400  -75077.407      389.03598     -74688.371      199.99933      200.06044      622.67053    
      1500  -75064.472      394.70657     -74669.766      200.00157      200.06953      622.9797     
      1600  -75057.741      401.7947      -74655.946      199.99437      200.06893      623.28887    
      1700  -75057.966      400.29807     -74657.668      199.99693      200.07798      623.59804    
      1800  -75064.388      395.60076     -74668.787      199.98937      200.07607      623.90721    
      1900  -75059.432      381.96639     -74677.465      199.99225      200.08379      624.21639    
      2000  -75063.14       391.04021     -74672.099      199.98524      200.081        624.52556    
      2100  -75055.011      397.47471     -74657.536      199.98893      200.08798      624.83473    
      2200  -75044.906      399.58361     -74645.322      199.98245      200.08418      625.1439     
      2300  -75046.95       402.56446     -74644.385      199.98571      200.08984      625.45307    
      2400  -75043.09       391.34943     -74651.741      199.97943      200.08559      625.76224    
      2500  -75051.802      394.69951     -74657.103      199.98219      200.09042      626.07141    
      2600  -75044.747      392.07532     -74652.672      199.9761       200.08682      626.38058    
      2700  -75032.042      391.16326     -74640.879      199.97758      200.09099      626.68975    
      2800  -75031.63       404.04952     -74627.58       199.9708       200.08749      626.99892    
      2900  -75022.056      399.87883     -74622.177      199.97119      200.09174      627.3081     
      3000  -75023.471      398.2873      -74625.184      199.96399      200.08868      627.61727    
      3100  -75024.541      393.33124     -74631.21       199.96358      200.09301      627.92644    
      3200  -75022.245      391.07596     -74631.169      199.95482      200.08994      628.23561    
      3300  -75011.504      390.3706      -74621.133      199.95332      200.09489      628.54478    
      3400  -75004.856      398.25286     -74606.604      199.94394      200.09238      628.85395    
      3500  -75002.316      404.78255     -74597.533      199.94162      200.09712      629.16312    
      3600  -74997.268      399.6178      -74597.65       199.93144      200.09414      629.47229    
      3700  -74992.777      389.81365     -74602.963      199.92841      200.09825      629.78146    
      3800  -74995.963      391.77527     -74604.187      199.91815      200.09504      630.09064    
      3900  -74987.937      390.7833      -74597.153      199.9149       200.09835      630.39981    
      4000  -74984.492      401.79517     -74582.697      199.90489      200.09477      630.70898    
      4100  -74973.576      402.91451     -74570.662      199.90137      200.09704      631.01815    
      4200  -74966.141      400.28287     -74565.858      199.89181      200.09275      631.32732    
      4300  -74964.774      396.17501     -74568.599      199.88824      200.09378      631.63649    
      4400  -74960.696      390.34397     -74570.352      199.87893      200.08903      631.94566    
      4500  -74954.752      388.90213     -74565.85       199.87538      200.08937      632.25483    
      4600  -74953.596      398.79085     -74554.805      199.8659       200.08374      632.564      
      4700  -74939.996      398.80214     -74541.194      199.86182      200.08333      632.87318    
      4800  -74932.055      399.38212     -74532.673      199.85242      200.07773      633.18235    
      4900  -74921.075      389.32424     -74531.751      199.84715      200.07648      633.49152    
      5000  -74924.881      391.97631     -74532.905      199.83718      200.07075      633.80069    
      5100  -74921.456      391.71565     -74529.741      199.83054      200.06899      634.10986    
      5200  -74911.872      392.18421     -74519.688      199.82013      200.0638       634.41903    
      5300  -74909.566      402.29229     -74507.274      199.81256      200.06197      634.7282     
      5400  -74895.272      397.80799     -74497.464      199.80171      200.05675      635.03737    
      5500  -74888.743      395.44393     -74493.3        199.79298      200.05404      635.34654    
      5600  -74886.471      394.12246     -74492.348      199.78193      200.0491       635.65571    
      5700  -74883.3        393.65304     -74489.647      199.77216      200.04558      635.96489    
      5800  -74876.454      394.54471     -74481.909      199.76144      200.04106      636.27406    
      5900  -74866.297      396.57404     -74469.723      199.75029      200.03652      636.58323    
      6000  -74855.779      397.89124     -74457.888      199.73944      200.03238      636.8924     
      6100  -74850.18       399.95482     -74450.225      199.72725      200.02702      637.20157    
      6200  -74844.712      397.28553     -74447.426      199.71637      200.02311      637.51074    
      6300  -74838.583      392.87457     -74445.708      199.70289      200.0166       637.81991    
      6400  -74829.31       390.77392     -74438.536      199.69164      200.01228      638.12908    
      6500  -74821.669      395.95931     -74425.71       199.67763      200.0053       638.43825    
      6600  -74809.019      397.18881     -74411.83       199.66609      200.00052      638.74743    
      6700  -74801.771      398.63491     -74403.136      199.6514       199.99246      639.0566     
      6800  -74795.513      395.44598     -74400.067      199.63934      199.98718      639.36577    
      6900  -74787.274      389.39664     -74397.877      199.62396      199.97828      639.67494    
      7000  -74785.214      393.78989     -74391.424      199.61128      199.97196      639.98411    
      7100  -74774.647      395.68488     -74378.963      199.59568      199.9624       640.29328    
      7200  -74760.06       395.86539     -74364.194      199.58261      199.9552       640.60245    
      7300  -74750.445      397.275       -74353.17       199.56646      199.94463      640.91162    
      7400  -74744.738      395.75549     -74348.983      199.55299      199.93669      641.22079    
      7500  -74742.673      395.42063     -74347.252      199.53575      199.92508      641.52997    
      7600  -74733.546      391.86532     -74341.68       199.52162      199.91673      641.83914    
      7700  -74722.433      393.55708     -74328.876      199.50333      199.90464      642.14831    
      7800  -74706.429      393.83731     -74312.591      199.48828      199.89592      642.45748    
      7900  -74696.739      397.7528      -74298.987      199.46904      199.88371      642.76665    
      8000  -74691.569      398.95946     -74292.61       199.45265      199.87467      643.07582    
      8100  -74683.928      393.8366      -74290.091      199.43201      199.86169      643.38499    
      8200  -74678.74       392.18393     -74286.557      199.41436      199.85232      643.69416    
      8300  -74670.167      394.2697      -74275.897      199.39254      199.83884      644.00333    
      8400  -74656.767      397.35919     -74259.408      199.3745       199.82934      644.3125     
      8500  -74641.598      397.70742     -74243.891      199.35124      199.8149       644.62168    
      8600  -74632.392      398.09414     -74234.298      199.33187      199.80454      644.93085    
      8700  -74624.682      394.71542     -74229.966      199.30813      199.78991      645.24002    
      8800  -74619.364      392.94267     -74226.421      199.28726      199.77841      645.54919    
      8900  -74612.81       394.44868     -74218.362      199.26281      199.76343      645.85836    
      9000  -74599.718      396.12475     -74203.593      199.24113      199.75109      646.16753    
      9100  -74584.723      398.24111     -74186.482      199.21646      199.73585      646.4767     
      9200  -74568.074      394.25822     -74173.816      199.19319      199.72202      646.78587    
      9300  -74561.478      395.59315     -74165.885      199.16793      199.7062       647.09504    
      9400  -74556.009      395.19625     -74160.813      199.14409      199.69174      647.40422    
      9500  -74548.089      394.36395     -74153.725      199.11756      199.67478      647.71339    
      9600  -74539.769      397.91536     -74141.854      199.09272      199.65932      648.02256    
      9700  -74520.682      395.69429     -74124.987      199.06541      199.64157      648.33173    
      9800  -74510.488      401.63324     -74108.855      199.03955      199.62535      648.6409     
      9900  -74498.803      400.67003     -74098.133      199.01115      199.60664      648.95007    
     10000  -74482.994      390.83591     -74092.158      198.98418      199.58943      649.25924    
     10100  -74478.072      392.5964      -74085.476      198.95475      199.56995      649.56841    
     10200  -74467.926      393.80312     -74074.123      198.92619      199.55153      649.87758    
     10300  -74457.359      398.19088     -74059.168      198.89631      199.53209      650.18675    
     10400  -74439.729      396.34964     -74043.379      198.86573      199.51215      650.49593    
     10500  -74431.058      401.54296     -74029.515      198.83482      199.49231      650.8051     
     10600  -74414.625      393.97138     -74020.653      198.80283      199.47173      651.11427    
     10700  -74408.775      395.22212     -74013.553      198.77067      199.45144      651.42344    
     10800  -74396.93       393.4886      -74003.441      198.7369       199.43007      651.73261    
     10900  -74380.749      392.97191     -73987.777      198.70332      199.40923      652.04178    
     11000  -74369.917      400.8267      -73969.09       198.66814      199.38731      652.35095    
     11100  -74353.326      396.74889     -73956.577      198.63312      199.36595      652.66012    
     11200  -74344.859      397.25049     -73947.608      198.5961       199.34287      652.96929    
     11300  -74331.748      394.45912     -73937.289      198.55979      199.32059      653.27847    
     11400  -74320.585      396.36994     -73924.215      198.52123      199.2965       653.58764    
     11500  -74305.832      395.63116     -73910.201      198.48427      199.2736       653.89681    
     11600  -74295.74       399.79591     -73895.944      198.4442       199.24768      654.20598    
     11700  -74280.541      398.43253     -73882.108      198.40651      199.22398      654.51515    
     11800  -74263.283      391.22109     -73872.061      198.36536      199.19643      654.82432    
     11900  -74257.709      393.134       -73864.575      198.3267       199.17151      655.13349    
     12000  -74243.979      391.85893     -73852.12       198.28495      199.14309      655.44266    
     12100  -74224.775      392.65566     -73832.119      198.24516      199.11653      655.75183    
     12200  -74211.535      397.90551     -73813.63       198.20303      199.08756      656.06101    
     12300  -74202.727      400.09284     -73802.634      198.16195      199.05959      656.37018    
     12400  -74188.711      395.04469     -73793.667      198.11892      199.03002      656.67935    
     12500  -74176.726      394.33931     -73782.387      198.07673      199.00139      656.98852    
     12600  -74159.192      391.36584     -73767.826      198.03267      198.97108      657.29769    
     12700  -74147.385      395.83293     -73751.552      197.98972      198.94212      657.60686    
     12800  -74131.886      395.00422     -73736.882      197.94444      198.9112       657.91603    
     12900  -74114.673      391.80223     -73722.871      197.89982      198.88109      658.2252     
     13000  -74108.723      400.19888     -73708.524      197.85431      198.8504       658.53437    
     13100  -74094.403      398.30688     -73696.097      197.80822      198.81966      658.84354    
     13200  -74081.052      394.73437     -73686.317      197.76182      198.78879      659.15272    
     13300  -74064.372      390.19005     -73674.182      197.71425      198.75699      659.46189    
     13400  -74047.483      394.59009     -73652.893      197.66794      198.72661      659.77106    
     13500  -74028.107      394.63292     -73633.474      197.61977      198.69449      660.08023    
     13600  -74016.192      396.34176     -73619.85       197.57245      198.66331      660.3894     
     13700  -74006.33       396.70036     -73609.63       197.52365      198.63094      660.69857    
     13800  -73994.908      394.7685      -73600.14       197.47604      198.59955      661.00774    
     13900  -73977.378      388.06979     -73589.308      197.42698      198.5667       661.31691    
     14000  -73964.229      392.29406     -73571.935      197.37919      198.53489      661.62608    
     14100  -73943.705      395.35071     -73548.354      197.33014      198.50146      661.93526    
     14200  -73928.261      399.24105     -73529.02       197.28226      198.46892      662.24443    
     14300  -73909.388      396.87212     -73512.516      197.23331      198.43492      662.5536     
     14400  -73892.181      391.89336     -73500.288      197.1859       198.40214      662.86277    
     14500  -73883.689      391.75481     -73491.934      197.13682      198.36719      663.17194    
     14600  -73868.512      390.79329     -73477.718      197.09014      198.33426      663.48111    
     14700  -73850.835      392.79477     -73458.04       197.04131      198.2988       663.79028    
     14800  -73835.627      395.32523     -73440.302      196.99557      198.26626      664.09945    
     14900  -73821.666      397.62605     -73424.04       196.94706      198.23078      664.40862    
     15000  -73798.025      389.94837     -73408.076      196.90151      198.19815      664.7178     
     15100  -73783.557      392.1066      -73391.45       196.85367      198.16299      665.02697    
     15200  -73771.662      396.95871     -73374.703      196.80866      198.13055      665.33614    
     15300  -73754.019      394.56124     -73359.457      196.76158      198.09596      665.64531    
     15400  -73738.078      391.4933      -73346.585      196.71688      198.064        665.95448    
     15500  -73723.736      391.14213     -73332.594      196.67007      198.03015      666.26365    
     15600  -73707.354      393.50772     -73313.846      196.62569      197.99922      666.57282    
     15700  -73685.248      395.33723     -73289.911      196.57956      197.96677      666.88199    
     15800  -73671.227      399.02579     -73272.201      196.53512      197.93649      667.19116    
     15900  -73655.221      395.43545     -73259.786      196.48941      197.90519      667.50033    
     16000  -73643.52       395.32466     -73248.195      196.44548      197.87562      667.80951    
     16100  -73623.609      392.31718     -73231.292      196.40062      197.84531      668.11868    
     16200  -73607.462      395.04718     -73212.415      196.35752      197.81657      668.42785    
     16300  -73589.78       397.44948     -73192.331      196.314        197.78723      668.73702    
     16400  -73569.436      397.64819     -73171.788      196.27183      197.75893      669.04619    
     16500  -73549.297      398.48747     -73150.81       196.23002      197.7302       669.35536    
     16600  -73532.516      396.26399     -73136.252      196.18914      197.70218      669.66453    
     16700  -73518.974      392.40036     -73126.573      196.14912      197.67422      669.9737     
     16800  -73503.271      391.77802     -73111.493      196.10975      197.64611      670.28287    
     16900  -73483.373      391.62965     -73091.743      196.07156      197.61842      670.59205    
     17000  -73465.723      397.96669     -73067.756      196.03382      197.59057      670.90122    
     17100  -73443.313      395.93103     -73047.381      195.99726      197.56324      671.21039    
     17200  -73429.314      397.06796     -73032.246      195.96081      197.5355       671.51956    
     17300  -73410.878      394.59657     -73016.282      195.92552      197.50841      671.82873    
     17400  -73399.533      398.19727     -73001.335      195.89019      197.48135      672.1379     
     17500  -73382.918      395.61205     -72987.305      195.85588      197.45524      672.44707    
     17600  -73361.211      391.63804     -72969.573      195.82131      197.42861      672.75624    
     17700  -73342.034      398.00686     -72944.027      195.78835      197.40399      673.06541    
     17800  -73321.962      399.64744     -72922.315      195.75396      197.37787      673.37459    
     17900  -73308.187      401.30453     -72906.883      195.72233      197.35461      673.68376    
     18000  -73284.388      390.72186     -72893.667      195.68818      197.32923      673.99293    
     18100  -73270.978      393.07289     -72877.905      195.65727      197.30726      674.3021     
     18200  -73246.791      388.36521     -72858.426      195.62394      197.28305      674.61127    
     18300  -73231.081      393.00857     -72838.072      195.59323      197.26191      674.92044    
     18400  -73206.717      390.63358     -72816.083      195.56047      197.23899      675.22961    
     18500  -73190.661      396.08106     -72794.58       195.53025      197.21877      675.53878    
     18600  -73167.287      393.83287     -72773.454      195.49833      197.19691      675.84795    
     18700  -73154.097      397.55429     -72756.543      195.46885      197.17729      676.15712    
     18800  -73138.512      393.88555     -72744.627      195.4377       197.15596      676.4663     
     18900  -73119.793      390.97444     -72728.818      195.40947      197.13723      676.77547    
     19000  -73100.917      393.14448     -72707.772      195.37926      197.1162       677.08464    
     19100  -73079.155      398.27766     -72680.878      195.3523       197.09788      677.39381    
     19200  -73059.344      398.28501     -72661.059      195.32349      197.07706      677.70298    
     19300  -73041.885      397.44784     -72644.437      195.29734      197.05832      678.01215    
     19400  -73018.095      389.83531     -72628.259      195.27054      197.03809      678.32132    
     19500  -73003.272      392.2805      -72610.991      195.24492      197.01837      678.63049    
     19600  -72988.966      394.29883     -72594.667      195.2202       196.99864      678.93966    
     19700  -72965.631      392.2496      -72573.381      195.19498      196.97796      679.24884    
     19800  -72941.377      395.09719     -72546.28       195.17187      196.95895      679.55801    
     19900  -72920.389      396.62439     -72523.765      195.14726      196.93794      679.86718    
     20000  -72901.135      395.70815     -72505.427      195.12496      196.91902      680.17635    
     20100  -72887.547      396.03589     -72491.511      195.1009       196.89818      680.48552    
     20200  -72868.29       391.3346      -72476.955      195.07885      196.87946      680.79469    
     20300  -72843.122      389.07061     -72454.051      195.05506      196.85905      681.10386    
     20400  -72828.21       399.36387     -72428.846      195.0337       196.84138      681.41303    
     20500  -72801.809      394.54857     -72407.261      195.00926      196.82108      681.7222     
     20600  -72783.199      396.48591     -72386.713      194.98856      196.80476      682.03137    
     20700  -72763.61       397.09349     -72366.517      194.96358      196.78492      682.34055    
     20800  -72745.945      399.19536     -72346.75       194.94305      196.76951      682.64972    
     20900  -72719.873      393.23557     -72326.638      194.91823      196.75065      682.95889    
     21000  -72699.368      393.64385     -72305.724      194.89727      196.73565      683.26806    
     21100  -72683.911      399.90682     -72284.004      194.87263      196.71768      683.57723    
     21200  -72658.038      397.52644     -72260.512      194.85099      196.70283      683.8864     
     21300  -72637.057      400.29008     -72236.767      194.82732      196.68597      684.19557    
     21400  -72617.059      398.07173     -72218.987      194.8052       196.67071      684.50474    
     21500  -72603.659      397.75618     -72205.903      194.78226      196.65435      684.81391    
     21600  -72579.159      392.65135     -72186.508      194.7603       196.63884      685.12309    
     21700  -72557.503      394.72994     -72162.773      194.73854      196.62297      685.43226    
     21800  -72528.866      392.27317     -72136.593      194.71672      196.60671      685.74143    
     21900  -72507.114      394.83777     -72112.276      194.69644      196.59142      686.0506     
     22000  -72493.817      397.5159      -72096.301      194.6749       196.57462      686.35977    
     22100  -72474.025      389.86314     -72084.162      194.6554       196.55913      686.66894    
     22200  -72452.703      393.28169     -72059.421      194.6346       196.54184      686.97811    
     22300  -72425.447      394.61966     -72030.828      194.61636      196.52654      687.28728    
     22400  -72405.141      398.83926     -72006.301      194.59619      196.50894      687.59645    
     22500  -72381.349      394.90662     -71986.443      194.5781       196.4934       687.90563    
     22600  -72362.218      391.67786     -71970.54       194.55787      196.47549      688.2148     
     22700  -72343.701      390.47164     -71953.229      194.54023      196.46006      688.52397    
     22800  -72318.883      392.55809     -71926.325      194.52021      196.44246      688.83314    
     22900  -72289.897      392.49522     -71897.402      194.50255      196.42726      689.14231    
     23000  -72273.446      397.23873     -71876.207      194.48217      196.40946      689.45148    
     23100  -72250.871      392.58789     -71858.283      194.46433      196.39445      689.76065    
     23200  -72231.53       390.89627     -71840.634      194.44413      196.37737      690.06982    
     23300  -72213.484      394.8271      -71818.657      194.42544      196.3623       690.37899    
     23400  -72180.112      392.50337     -71787.609      194.4051       196.34619      690.68816    
     23500  -72162.313      399.23102     -71763.082      194.38562      196.33108      690.99734    
     23600  -72141.254      397.39999     -71743.854      194.36532      196.31575      691.30651    
     23700  -72119.554      392.12789     -71727.426      194.34491      196.30044      691.61568    
     23800  -72102.902      394.73982     -71708.162      194.3247       196.28568      691.92485    
     23900  -72074.782      394.77998     -71680.002      194.3037       196.27001      692.23402    
     24000  -72047.1        396.81874     -71650.281      194.28398      196.25574      692.54319    
     24100  -72028.637      398.50651     -71630.13       194.26245      196.23947      692.85236    
     24200  -72007.144      393.44294     -71613.701      194.24306      196.22556      693.16153    
     24300  -71988.895      395.32026     -71593.575      194.22115      196.20879      693.4707     
     24400  -71960.821      393.12552     -71567.696      194.20267      196.19519      693.77988    
     24500  -71934.522      397.3413      -71537.181      194.18082      196.17807      694.08905    
     24600  -71912.182      397.33154     -71514.851      194.16235      196.1638       694.39822    
     24700  -71888.912      393.52103     -71495.391      194.1412       196.14653      694.70739    
     24800  -71867.872      391.57184     -71476.3        194.12302      196.1316       695.01656    
     24900  -71847.543      392.83723     -71454.706      194.10232      196.11368      695.32573    
     25000  -71820.476      394.91743     -71425.559      194.08442      196.09825      695.6349     
     25100  -71798.288      401.82926     -71396.458      194.06385      196.07977      695.94407    
     25200  -71774.406      399.05808     -71375.348      194.04626      196.06373      696.25324    
     25300  -71749.359      391.11676     -71358.242      194.02591      196.04488      696.56242    
     25400  -71728.667      390.43295     -71338.234      194.00741      196.02786      696.87159    
     25500  -71706.409      393.36648     -71313.042      193.98762      196.00959      697.18076    
     25600  -71678.519      390.8389      -71287.68       193.9682       195.99176      697.48993    
     25700  -71661.829      398.13839     -71263.691      193.94908      195.9742       697.7991     
     25800  -71636.36       396.36243     -71239.998      193.92863      195.95574      698.10827    
     25900  -71611.605      396.42111     -71215.184      193.90932      195.93874      698.41744    
     26000  -71582.487      396.96708     -71185.52       193.88823      195.92029      698.72661    
     26100  -71556.858      397.9655      -71158.892      193.86841      195.9035       699.03578    
     26200  -71538.732      396.92287     -71141.809      193.84663      195.88528      699.34495    
     26300  -71521.586      398.42271     -71123.163      193.82605      195.8683       699.65413    
     26400  -71489.966      390.93578     -71099.03       193.80416      195.8505       699.9633     
     26500  -71467.86       395.95129     -71071.908      193.78307      195.83361      700.27247    
     26600  -71444.636      401.68572     -71042.951      193.76068      195.81597      700.58164    
     26700  -71418.011      401.5464      -71016.465      193.739        195.79912      700.89081    
     26800  -71392.579      396.46503     -70996.114      193.71654      195.78127      701.19998    
     26900  -71372.677      392.67275     -70980.004      193.69484      195.76439      701.50915    
     27000  -71354.885      396.64993     -70958.235      193.67233      195.74623      701.81832    
     27100  -71321.93       391.00446     -70930.925      193.65065      195.72875      702.12749    
     27200  -71298.235      397.7251      -70900.51       193.6291       195.71078      702.43667    
     27300  -71275.635      400.30181     -70875.333      193.60762      195.69257      702.74584    
     27400  -71248.703      395.46118     -70853.242      193.58637      195.67416      703.05501    
     27500  -71226.006      395.48471     -70830.522      193.56531      195.65538      703.36418    
     27600  -71205.316      399.09997     -70806.216      193.54464      195.63653      703.67335    
     27700  -71176.843      395.36725     -70781.476      193.52378      195.61728      703.98252    
     27800  -71152.229      395.38827     -70756.841      193.50324      195.59816      704.29169    
     27900  -71129.839      398.29596     -70731.543      193.48208      195.57846      704.60086    
     28000  -71100.442      394.24996     -70706.193      193.46189      195.55956      704.91003    
     28100  -71072.955      395.99444     -70676.961      193.44048      195.53924      705.2192     
     28200  -71039.673      392.37866     -70647.294      193.4204       195.52044      705.52838    
     28300  -71025.27       399.31135     -70625.958      193.39874      195.50019      705.83755    
     28400  -70999.521      391.44102     -70608.08       193.37832      195.48135      706.14672    
     28500  -70978.55       394.3973      -70584.153      193.35596      195.46101      706.45589    
     28600  -70950.059      393.10403     -70556.955      193.33534      195.44263      706.76506    
     28700  -70923.616      396.09519     -70527.521      193.31225      195.4226       707.07423    
     28800  -70895.176      399.7796      -70495.396      193.29093      195.4048       707.3834     
     28900  -70868.291      403.41925     -70464.872      193.26705      195.38469      707.69257    
     29000  -70850.626      401.28259     -70449.343      193.24472      195.36692      708.00174    
     29100  -70824.424      394.19842     -70430.226      193.2207       195.3476       708.31092    
     29200  -70798.758      391.4366      -70407.322      193.19753      195.32933      708.62009    
     29300  -70776.912      395.47427     -70381.438      193.17384      195.31064      708.92926    
     29400  -70748.826      397.44921     -70351.377      193.14986      195.29148      709.23843    
     29500  -70720.437      397.67722     -70322.76       193.12723      195.2738       709.5476     
     29600  -70696.153      396.54388     -70299.609      193.10195      195.25306      709.85677    
     29700  -70677.564      394.09581     -70283.468      193.08045      195.23635      710.16594    
     29800  -70650.145      391.73043     -70258.415      193.05486      195.21485      710.47511    
     29900  -70618.166      390.83172     -70227.334      193.03362      195.19776      710.78428    
     30000  -70592.243      394.49498     -70197.748      193.00852      195.17624      711.09346    
     30100  -70563.312      392.10455     -70171.208      192.98719      195.15808      711.40263    
     30200  -70541.549      396.54538     -70145.004      192.96282      195.13626      711.7118     
     30300  -70519.413      398.85863     -70120.554      192.9412       195.11688      712.02097    
     30400  -70489.852      391.83601     -70098.016      192.91761      195.09472      712.33014    
     30500  -70462.456      388.42739     -70074.028      192.89586      195.07409      712.63931    
     30600  -70438.557      395.20954     -70043.347      192.87301      195.05211      712.94848    
     30700  -70406.592      394.33688     -70012.255      192.85067      195.03051      713.25765    
     30800  -70384.377      397.77141     -69986.606      192.82829      195.00878      713.56682    
     30900  -70359.059      395.21126     -69963.847      192.80531      194.98648      713.87599    
     31000  -70334.78       388.18961     -69946.591      192.78327      194.96527      714.18517    
     31100  -70310.32       387.36142     -69922.958      192.75919      194.94222      714.49434    
     31200  -70283.511      390.98555     -69892.525      192.73761      194.92177      714.80351    
     31300  -70252.147      390.96159     -69861.185      192.71273      194.89803      715.11268    
     31400  -70227.575      396.87025     -69830.705      192.69134      194.87818      715.42185    
     31500  -70200.974      399.27275     -69801.701      192.66535      194.85396      715.73102    
     31600  -70175.397      399.70845     -69775.689      192.64362      194.83439      716.04019    
     31700  -70151.361      394.72381     -69756.637      192.61701      194.81068      716.34936    
     31800  -70125.026      390.33305     -69734.693      192.59418      194.79101      716.65853    
     31900  -70095.576      391.39033     -69704.186      192.568        194.7684       716.96771    
     32000  -70072.25       399.34357     -69672.906      192.54373      194.74816      717.27688    
     32100  -70041.062      395.55201     -69645.51       192.51857      194.72688      717.58605    
     32200  -70017.664      397.34891     -69620.315      192.49326      194.70556      717.89522    
     32300  -69990.061      394.31635     -69595.745      192.4689       194.68502      718.20439    
     32400  -69965.151      392.89699     -69572.254      192.44317      194.66312      718.51356    
     32500  -69939.364      394.2948      -69545.069      192.41945      194.64307      718.82273    
     32600  -69910.124      398.22879     -69511.895      192.39346      194.62044      719.1319     
     32700  -69874.375      392.7594      -69481.616      192.37059      194.60083      719.44107    
     32800  -69853.57       397.64056     -69455.929      192.34461      194.57756      719.75025    
     32900  -69829.287      394.40148     -69434.885      192.32186      194.5574       720.05942    
     33000  -69806.546      391.34491     -69415.201      192.29667      194.53433      720.36859    
     33100  -69775.143      390.11074     -69385.033      192.27383      194.51321      720.67776    
     33200  -69746.599      395.69693     -69350.902      192.24991      194.49064      720.98693    
     33300  -69720.671      398.24441     -69322.426      192.22696      194.46851      721.2961     
     33400  -69690.229      397.29046     -69292.938      192.20348      194.44595      721.60527    
     33500  -69662.328      397.59947     -69264.729      192.18046      194.42377      721.91444    
     33600  -69636.753      397.28838     -69239.465      192.15699      194.40127      722.22361    
     33700  -69611.945      394.66314     -69217.282      192.13323      194.37853      722.53278    
     33800  -69581.178      387.22962     -69193.948      192.11054      194.35696      722.84196    
     33900  -69553.882      392.09913     -69161.783      192.08585      194.33354      723.15113    
     34000  -69522.648      394.99956     -69127.648      192.06363      194.31266      723.4603     
     34100  -69493.466      393.69791     -69099.768      192.0383       194.28891      723.76947    
     34200  -69469.466      395.28967     -69074.176      192.01565      194.26826      724.07864    
     34300  -69445.623      394.02777     -69051.595      191.99084      194.24561      724.38781    
     34400  -69419.974      390.61204     -69029.362      191.96687      194.22436      724.69698    
     34500  -69392.208      393.55815     -68998.65       191.94221      194.20271      725.00615    
     34600  -69358.191      395.35972     -68962.831      191.91756      194.18145      725.31532    
     34700  -69334.12       398.79747     -68935.322      191.89357      194.16102      725.6245     
     34800  -69305.39       394.96642     -68910.423      191.86811      194.13942      725.93367    
     34900  -69281.999      395.93681     -68886.063      191.84407      194.11945      726.24284    
     35000  -69250.79       392.18868     -68858.602      191.81866      194.09805      726.55201    
     35100  -69219.068      395.89843     -68823.17       191.7946       194.07817      726.86118    
     35200  -69188.619      395.4618      -68793.157      191.76991      194.05715      727.17035    
     35300  -69168.071      400.01441     -68768.056      191.74507      194.03628      727.47952    
     35400  -69136.018      389.75709     -68746.26       191.72088      194.01558      727.78869    
     35500  -69114.905      391.30526     -68723.6        191.69631      193.99433      728.09786    
     35600  -69081.954      389.91881     -68692.036      191.67221      193.97304      728.40704    
     35700  -69054.671      399.00318     -68655.668      191.64842      193.95186      728.71621    
     35800  -69023.722      398.20176     -68625.52       191.62423      193.92972      729.02538    
     35900  -68996.366      398.12286     -68598.243      191.6015       193.90853      729.33455    
     36000  -68968.76       393.61949     -68575.14       191.57774      193.88581      729.64372    
     36100  -68941.11       389.20372     -68551.906      191.55514      193.86389      729.95289    
     36200  -68913.652      391.16212     -68522.49       191.53241      193.84122      730.26206    
     36300  -68880.146      395.12676     -68485.019      191.50919      193.81811      730.57123    
     36400  -68856.08       400.37818     -68455.702      191.48751      193.79625      730.8804     
     36500  -68826.304      395.21887     -68431.085      191.46395      193.77246      731.18957    
     36600  -68797.387      389.66139     -68407.726      191.44197      193.7505       731.49875    
     36700  -68775.54       393.84603     -68381.694      191.41869      193.72729      731.80792    
     36800  -68747.11       398.34582     -68348.764      191.39603      193.70511      732.11709    
     36900  -68712.264      397.93508     -68314.328      191.37323      193.68273      732.42626    
     37000  -68678.72       392.4148      -68286.305      191.35006      193.66022      732.73543    
     37100  -68656.95       393.55519     -68263.394      191.32771      193.63864      733.0446     
     37200  -68636.321      396.1904      -68240.13       191.30407      193.61622      733.35377    
     37300  -68602.267      391.60766     -68210.659      191.28159      193.59542      733.66294    
     37400  -68570.285      394.94262     -68175.343      191.25796      193.57381      733.97211    
     37500  -68543.94       398.95803     -68144.982      191.23519      193.55349      734.28129    
     37600  -68515.986      397.69599     -68118.29       191.2115       193.53279      734.59046    
     37700  -68480.056      387.45886     -68092.597      191.18828      193.51263      734.89963    
     37800  -68464.586      399.0475      -68065.539      191.16449      193.49218      735.2088     
     37900  -68425.864      390.65851     -68035.205      191.14172      193.47287      735.51797    
     38000  -68398.019      397.4954      -68000.523      191.11797      193.4525       735.82714    
     38100  -68366.267      396.56394     -67969.703      191.09521      193.43341      736.13631    
     38200  -68343.598      397.32922     -67946.269      191.0722       193.41378      736.44548    
     38300  -68317.741      393.05301     -67924.688      191.04901      193.39371      736.75465    
     38400  -68284.457      389.81906     -67894.638      191.02741      193.37486      737.06382    
     38500  -68257.421      396.0639      -67861.357      191.00418      193.35426      737.373      
     38600  -68221.489      392.46769     -67829.021      190.98305      193.3354       737.68217    
     38700  -68195.223      396.23202     -67798.991      190.96039      193.31461      737.99134    
     38800  -68168.366      396.2178      -67772.148      190.93944      193.29536      738.30051    
     38900  -68142.325      390.99065     -67751.334      190.91748      193.27441      738.60968    
     39000  -68116.239      392.8664      -67723.372      190.89662      193.25419      738.91885    
     39100  -68078.211      390.48142     -67687.73       190.87585      193.23369      739.22802    
     39200  -68051.375      395.84897     -67655.526      190.85487      193.21234      739.53719    
     39300  -68026.846      400.14468     -67626.702      190.8353       193.19234      739.84636    
     39400  -67996.6        396.39493     -67600.205      190.81376      193.17025      740.15554    
     39500  -67967.743      389.99445     -67577.748      190.79487      193.15081      740.46471    
     39600  -67941.649      390.38166     -67551.268      190.77344      193.12905      740.77388    
     39700  -67904.964      391.459       -67513.505      190.75459      193.10992      741.08305    
     39800  -67875.972      395.19836     -67480.774      190.7336       193.08904      741.39222    
     39900  -67850.244      398.45451     -67451.79       190.7141       193.06973      741.70139    
     40000  -67816.429      391.12635     -67425.303      190.69369      193.04988      742.01056    
     40100  -67798.452      397.85628     -67400.596      190.67316      193.03014      742.31973    
     40200  -67761.173      388.3452      -67372.827      190.65354      193.01149      742.6289     
     40300  -67730.048      394.69679     -67335.351      190.63219      192.99173      742.93808    
     40400  -67698.444      395.55678     -67302.887      190.61244      192.97386      743.24725    
     40500  -67669.481      395.48989     -67273.991      190.59015      192.9539       743.55642    
     40600  -67642.711      392.64253     -67250.068      190.57054      192.93727      743.86559    
     40700  -67618.331      391.62456     -67226.706      190.54815      192.91806      744.17476    
     40800  -67588.722      392.18189     -67196.54       190.52788      192.90135      744.48393    
     40900  -67552.362      395.74901     -67156.613      190.50586      192.88269      744.7931     
     41000  -67523.119      396.84185     -67126.278      190.485        192.86541      745.10227    
     41100  -67495.421      395.76521     -67099.656      190.46429      192.84801      745.41144    
     41200  -67474.556      399.2714      -67075.284      190.44282      192.82927      745.72061    
     41300  -67437.841      390.82009     -67047.021      190.42319      192.81213      746.02979    
     41400  -67404.606      395.05704     -67009.549      190.4014       192.7924       746.33896    
     41500  -67373.196      396.49202     -66976.704      190.38269      192.77516      746.64813    
     41600  -67347.924      397.87967     -66950.044      190.36132      192.75499      746.9573     
     41700  -67320.376      394.66112     -66925.715      190.34299      192.7371       747.26647    
     41800  -67292.088      393.63271     -66898.455      190.3226       192.71697      747.57564    
     41900  -67259.622      393.38835     -66866.234      190.30436      192.69832      747.88481    
     42000  -67223.773      397.67791     -66826.095      190.28518      192.67838      748.19398    
     42100  -67197.556      399.78331     -66797.772      190.26625      192.65838      748.50315    
     42200  -67173.153      398.71654     -66774.437      190.24912      192.63981      748.81233    
     42300  -67143.286      394.12064     -66749.166      190.22959      192.61889      749.1215     
     42400  -67111.275      391.23215     -66720.043      190.21305      192.60081      749.43067    
     42500  -67078.61       392.40397     -66686.206      190.19337      192.58         749.73984    
     42600  -67051.258      402.42249     -66648.835      190.17667      192.56241      750.04901    
     42700  -67014.78       393.76103     -66621.019      190.1577       192.5425       750.35818    
     42800  -66992.614      396.48688     -66596.128      190.14038      192.52481      750.66735    
     42900  -66964.835      395.51943     -66569.315      190.12167      192.50583      750.97652    
     43000  -66934.498      393.52734     -66540.971      190.10387      192.48832      751.28569    
     43100  -66906.033      396.31932     -66509.714      190.08538      192.47059      751.59487    
     43200  -66869.827      398.16396     -66471.663      190.06663      192.45297      751.90404    
     43300  -66836.179      394.98279     -66441.196      190.049        192.43677      752.21321    
     43400  -66815.91       398.46319     -66417.447      190.02912      192.41872      752.52238    
     43500  -66782.155      391.14773     -66391.007      190.01189      192.4035       752.83155    
     43600  -66753.477      392.98337     -66360.494      189.99156      192.38592      753.14072    
     43700  -66725.483      396.87028     -66328.613      189.97353      192.3709       753.44989    
     43800  -66692.369      396.90924     -66295.46       189.95385      192.35441      753.75906    
     43900  -66656.863      400.38949     -66256.474      189.93455      192.33818      754.06823    
     44000  -66629.827      402.29099     -66227.536      189.91623      192.32312      754.3774     
     44100  -66602.709      397.67296     -66205.036      189.8961       192.30612      754.68658    
     44200  -66569.729      391.05108     -66178.678      189.87778      192.29098      754.99575    
     44300  -66542.75       391.96763     -66150.782      189.85823      192.27421      755.30492    
     44400  -66515.975      394.56622     -66121.409      189.84014      192.25862      755.61409    
     44500  -66488.015      397.30049     -66090.715      189.82176      192.24224      755.92326    
     44600  -66452.029      394.62124     -66057.407      189.80369      192.22593      756.23243    
     44700  -66423.765      398.06421     -66025.701      189.7863       192.20985      756.5416     
     44800  -66391.209      392.62957     -65998.58       189.76779      192.19244      756.85077    
     44900  -66364.6        390.65075     -65973.949      189.75185      192.17703      757.15994    
     45000  -66335.583      391.47686     -65944.106      189.7338       192.15888      757.46912    
     45100  -66304.519      399.72572     -65904.794      189.71835      192.143        757.77829    
     45200  -66271.205      399.23874     -65871.966      189.70098      192.12459      758.08746    
     45300  -66243.516      398.80155     -65844.714      189.68522      192.10768      758.39663    
     45400  -66214.009      394.91314     -65819.096      189.6687       192.08991      758.7058     
     45500  -66185.299      395.08925     -65790.209      189.65241      192.07214      759.01497    
     45600  -66151.738      392.79173     -65758.946      189.63711      192.0557       759.32414    
     45700  -66119.377      397.28663     -65722.091      189.6194       192.03691      759.63331    
     45800  -66088.694      398.70274     -65689.991      189.60462      192.02128      759.94248    
     45900  -66058.705      393.68589     -65665.019      189.5864       192.00241      760.25165    
     46000  -66031.2        392.51723     -65638.683      189.57173      191.98719      760.56083    
     46100  -66004.822      397.16068     -65607.661      189.55359      191.96895      760.87       
     46200  -65971.042      397.61241     -65573.43       189.53747      191.95307      761.17917    
     46300  -65933.587      400.22467     -65533.362      189.52016      191.93611      761.48834    
     46400  -65901.298      398.45389     -65502.844      189.50261      191.91923      761.79751    
     46500  -65876.866      399.06103     -65477.805      189.48615      191.90383      762.10668    
     46600  -65842.699      390.6753      -65452.024      189.4672       191.88621      762.41585    
     46700  -65821.498      396.43597     -65425.062      189.45086      191.87152      762.72502    
     46800  -65791.924      395.50777     -65396.416      189.43186      191.85436      763.03419    
     46900  -65757.935      392.14596     -65365.789      189.41498      191.83958      763.34337    
     47000  -65727.793      398.82747     -65328.965      189.39629      191.823        763.65254    
     47100  -65698.664      403.32069     -65295.343      189.37882      191.80785      763.96171    
     47200  -65662.573      393.04685     -65269.526      189.36078      191.79209      764.27088    
     47300  -65640.495      396.34824     -65244.146      189.34309      191.77655      764.58005    
     47400  -65609.88       396.14984     -65213.73       189.32595      191.7612       764.88922    
     47500  -65575.991      394.71172     -65181.279      189.30784      191.74487      765.19839    
     47600  -65547.561      399.15104     -65148.41       189.29175      191.73037      765.50756    
     47700  -65510.906      397.38398     -65113.522      189.27348      191.71348      765.81673    
     47800  -65477.042      396.1942      -65080.848      189.25734      191.69836      766.12591    
     47900  -65456.742      399.96694     -65056.775      189.24055      191.68226      766.43508    
     48000  -65424.123      393.53695     -65030.586      189.22462      191.66651      766.74425    
     48100  -65394.027      394.10601     -64999.921      189.20837      191.65007      767.05342    
     48200  -65362.867      397.18918     -64965.678      189.19238      191.6335       767.36259    
     48300  -65324.251      397.22978     -64927.021      189.17724      191.61738      767.67176    
     48400  -65298.187      401.97237     -64896.214      189.16146      191.6001       767.98093    
     48500  -65263.733      391.00897     -64872.724      189.14717      191.58436      768.2901     
     48600  -65240.677      397.12236     -64843.555      189.13152      191.56693      768.59927    
     48700  -65204.931      392.11277     -64812.818      189.11628      191.55021      768.90844    
     48800  -65177.932      396.42549     -64781.507      189.10138      191.53384      769.21762    
     48900  -65146.93       395.49115     -64751.439      189.08497      191.51628      769.52679    
     49000  -65117.771      395.08467     -64722.686      189.07096      191.50114      769.83596    
     49100  -65088.111      392.32189     -64695.789      189.05366      191.48332      770.14513    
     49200  -65060.238      394.89011     -64665.348      189.03906      191.46815      770.4543     
     49300  -65026.508      399.06846     -64627.439      189.02215      191.45146      770.76347    
     49400  -64987.869      396.57026     -64591.299      189.00614      191.43582      771.07264    
     49500  -64956.369      393.48901     -64562.88       188.99021      191.42087      771.38181    
     49600  -64930.808      394.95102     -64535.857      188.9726       191.40467      771.69098    
     49700  -64900.041      394.22218     -64505.818      188.95714      191.39105      772.00016    
     49800  -64871.106      396.16077     -64474.945      188.93899      191.37511      772.30933    
     49900  -64839.271      395.87572     -64443.395      188.92288      191.36166      772.6185     
     50000  -64805.334      394.58815     -64410.746      188.90463      191.34627      772.92767    
     50100  -64774.269      395.6536      -64378.616      188.88829      191.33299      773.23684    
     50200  -64749.093      399.05027     -64350.043      188.87047      191.31803      773.54601    
     50300  -64723.083      399.03474     -64324.048      188.85289      191.30348      773.85518    
     50400  -64685.01       391.54831     -64293.462      188.83626      191.28955      774.16435    
     50500  -64653.67       397.03643     -64256.633      188.81833      191.27413      774.47352    
     50600  -64616.495      398.95082     -64217.544      188.80198      191.25995      774.7827     
     50700  -64590.822      402.41822     -64188.403      188.78426      191.24405      775.09187    
     50800  -64557.662      395.716       -64161.946      188.76819      191.22964      775.40104    
     50900  -64528.244      394.59477     -64133.649      188.7509       191.21352      775.71021    
     51000  -64502.267      397.72589     -64104.541      188.73494      191.19812      776.01938    
     51100  -64470.301      395.67626     -64074.625      188.71883      191.18225      776.32855    
     51200  -64438.29       392.9405      -64045.349      188.70211      191.16493      776.63772    
     51300  -64407.159      392.22826     -64014.931      188.68714      191.14906      776.94689    
     51400  -64377.584      398.23137     -63979.353      188.67103      191.13134      777.25606    
     51500  -64339.635      397.15235     -63942.483      188.656        191.11438      777.56523    
     51600  -64311.899      400.75857     -63911.141      188.64011      191.09616      777.87441    
     51700  -64284.562      396.48001     -63888.082      188.62533      191.07917      778.18358    
     51800  -64253.778      395.90816     -63857.87       188.61004      191.06127      778.49275    
     51900  -64222.363      398.39696     -63823.966      188.59422      191.04294      778.80192    
     52000  -64184.189      394.76942     -63789.42       188.58056      191.02652      779.11109    
     52100  -64154.693      395.61087     -63759.082      188.56365      191.00708      779.42026    
     52200  -64130.519      396.72621     -63733.793      188.54979      190.99118      779.72943    
     52300  -64095.226      391.88326     -63703.342      188.53319      190.97283      780.0386     
     52400  -64062.372      393.75657     -63668.615      188.5182       190.9563       780.34777    
     52500  -64029.383      399.21435     -63630.169      188.50243      190.93922      780.65695    
     52600  -63994.859      401.30684     -63593.552      188.48648      190.92222      780.96612    
     52700  -63967.172      396.80708     -63570.365      188.47096      190.9064       781.27529    
     52800  -63936.384      394.07195     -63542.312      188.45385      190.88944      781.58446    
     52900  -63906.983      393.56736     -63513.415      188.43849      190.87462      781.89363    
     53000  -63880.143      396.08209     -63484.06       188.42068      190.85802      782.2028     
     53100  -63847.69       394.94886     -63452.741      188.40481      190.84373      782.51197    
     53200  -63814.863      396.42562     -63418.438      188.3869       190.82785      782.82114    
     53300  -63777.843      397.43523     -63380.408      188.37019      190.81368      783.13031    
     53400  -63744.379      397.2748      -63347.104      188.35254      190.79898      783.43949    
     53500  -63719.136      396.48616     -63322.649      188.33451      190.78413      783.74866    
     53600  -63688.541      395.67446     -63292.866      188.31753      190.77076      784.05783    
     53700  -63656.777      396.76938     -63260.007      188.29806      190.75483      784.367      
     53800  -63624.874      397.25587     -63227.618      188.28167      190.74175      784.67617    
     53900  -63592.747      393.91827     -63198.829      188.26237      190.72545      784.98534    
     54000  -63564.955      393.38818     -63171.567      188.24593      190.71185      785.29451    
     54100  -63531.823      393.30456     -63138.518      188.22707      190.69542      785.60368    
     54200  -63499.402      400.79541     -63098.606      188.21076      190.68099      785.91285    
     54300  -63461.539      400.43687     -63061.102      188.19328      190.6649       786.22202    
     54400  -63429.007      395.83061     -63033.176      188.17611      190.64861      786.5312     
     54500  -63399.071      395.33081     -63003.74       188.16093      190.6339       786.84037    
     54600  -63369.467      393.60327     -62975.864      188.14284      190.61572      787.14954    
     54700  -63346.167      399.30149     -62946.865      188.12896      190.60126      787.45871    
     54800  -63307.93       392.30783     -62915.622      188.11067      190.582        787.76788    
     54900  -63279.182      395.89564     -62883.287      188.09724      190.56718      788.07705    
     55000  -63247.827      394.69895     -62853.128      188.08014      190.54823      788.38622    
     55100  -63215.85       392.08638     -62823.763      188.06551      190.53133      788.69539    
     55200  -63184.667      394.61535     -62790.052      188.05077      190.5139       789.00456    
     55300  -63150.482      396.84201     -62753.64       188.03387      190.49464      789.31374    
     55400  -63118.894      403.06291     -62715.831      188.02047      190.47876      789.62291    
     55500  -63085.452      400.0073      -62685.445      188.00288      190.45876      789.93208    
     55600  -63054.229      394.62641     -62659.603      187.99001      190.44365      790.24125    
     55700  -63022.844      394.42176     -62628.423      187.97191      190.42358      790.55042    
     55800  -62993.852      398.56086     -62595.291      187.95802      190.40786      790.85959    
     55900  -62957.623      394.28817     -62563.335      187.94094      190.38963      791.16876    
     56000  -62929.514      393.50123     -62536.013      187.92393      190.37203      791.47793    
     56100  -62897.475      391.96996     -62505.505      187.90825      190.35621      791.7871     
     56200  -62860.415      392.27249     -62468.142      187.88926      190.33781      792.09627    
     56300  -62825.095      398.71101     -62426.384      187.87372      190.32321      792.40545    
     56400  -62796.408      401.19325     -62395.214      187.85309      190.30394      792.71462    
     56500  -62766.185      399.30375     -62366.881      187.83799      190.29064      793.02379    
     56600  -62738.049      399.57915     -62338.47       187.81758      190.27207      793.33296    
     56700  -62703.941      394.21683     -62309.725      187.8007       190.25738      793.64213    
     56800  -62677.143      397.63855     -62279.504      187.78202      190.24107      793.9513     
     56900  -62640.173      393.25876     -62246.914      187.76295      190.22427      794.26047    
     57000  -62609.069      394.98207     -62214.087      187.74597      190.20977      794.56964    
     57100  -62575.661      390.18618     -62185.475      187.72554      190.19182      794.87881    
     57200  -62545.179      391.64367     -62153.536      187.70946      190.17824      795.18799    
     57300  -62514.284      395.58863     -62118.695      187.68876      190.15951      795.49716    
     57400  -62476.655      397.87873     -62078.776      187.67253      190.14527      795.80633    
     57500  -62441.99       400.15772     -62041.832      187.6531       190.12735      796.1155     
     57600  -62411.257      395.95317     -62015.304      187.63639      190.11188      796.42467    
     57700  -62387.744      402.1829      -61985.561      187.61903      190.09506      796.73384    
     57800  -62347.109      392.33784     -61954.771      187.60035      190.07671      797.04301    
     57900  -62313.91       390.51686     -61923.393      187.58599      190.06223      797.35218    
     58000  -62282.507      389.6937      -61892.813      187.56647      190.04181      797.66135    
     58100  -62254.9        395.65436     -61859.246      187.55298      190.02717      797.97053    
     58200  -62223.026      394.21906     -61828.807      187.53424      190.00674      798.2797     
     58300  -62191.043      392.72077     -61798.322      187.52006      189.99094      798.58887    
     58400  -62159.874      397.482       -61762.392      187.50217      189.97083      798.89804    
     58500  -62119.734      397.5387      -61722.195      187.48702      189.9536       799.20721    
     58600  -62083.833      399.521       -61684.312      187.47061      189.93491      799.51638    
     58700  -62056.15       398.03666     -61658.113      187.45376      189.91586      799.82555    
     58800  -62023.599      395.92986     -61627.67       187.4391       189.8991       800.13472    
     58900  -61992.377      395.67209     -61596.704      187.42087      189.87889      800.44389    
     59000  -61959.45       394.90411     -61564.546      187.40657      189.86255      800.75306    
     59100  -61925.201      391.81398     -61533.387      187.38832      189.84262      801.06224    
     59200  -61896.838      397.0392      -61499.799      187.3736       189.82638      801.37141    
     59300  -61862.284      393.3552      -61468.929      187.35573      189.8075       801.68058    
     59400  -61828.334      388.56027     -61439.774      187.3395       189.79057      801.98975    
     59500  -61794.835      393.52384     -61401.311      187.322        189.7728       802.29892    
     59600  -61758.847      397.66854     -61361.179      187.30452      189.7555       802.60809    
     59700  -61724.103      401.71253     -61322.391      187.287        189.73858      802.91726    
     59800  -61696.295      400.03907     -61296.256      187.26874      189.72143      803.22643    
     59900  -61663.847      398.64824     -61265.199      187.25161      189.70596      803.5356     
     60000  -61627.443      393.49811     -61233.944      187.23175      189.68812      803.84478    
     60100  -61599.123      398.28708     -61200.836      187.21525      189.67407      804.15395    
     60200  -61563.591      395.10344     -61168.488      187.19409      189.65555      804.46312    
     60300  -61530.462      396.24018     -61134.222      187.17796      189.64211      804.77229    
     60400  -61498.357      394.65058     -61103.707      187.15689      189.62374      805.08146    
     60500  -61462.577      390.27395     -61072.303      187.13982      189.60946      805.39063    
     60600  -61425.62       392.01246     -61033.607      187.11978      189.59219      805.6998     
     60700  -61390.26       397.19206     -60993.068      187.10106      189.57612      806.00897    
     60800  -61354.899      403.6515      -60951.248      187.08227      189.55957      806.31814    
     60900  -61321.908      400.55028     -60921.358      187.0633       189.54251      806.62732    
     61000  -61289.388      397.48863     -60891.9        187.04576      189.52642      806.93649    
     61100  -61257.122      396.1844      -60860.937      187.02647      189.5082       807.24566    
     61200  -61220.93       392.42188     -60828.508      187.0096       189.49211      807.55483    
     61300  -61188.183      392.5411      -60795.642      186.99054      189.47333      807.864      
     61400  -61156.725      394.90935     -60761.816      186.97373      189.45628      808.17317    
     61500  -61124.172      396.60675     -60727.566      186.95579      189.43765      808.48234    
     61600  -61088.686      394.18981     -60694.496      186.93926      189.41982      808.79151    
     61700  -61057.344      391.06434     -60666.28       186.92208      189.40109      809.10068    
     61800  -61019.324      390.91081     -60628.413      186.90547      189.38278      809.40985    
     61900  -60985.737      398.41686     -60587.32       186.88854      189.36367      809.71903    
     62000  -60945.683      397.06904     -60548.614      186.87198      189.34482      810.0282     
     62100  -60913.978      396.03815     -60517.94       186.85594      189.32624      810.33737    
     62200  -60880.607      396.77483     -60483.832      186.83995      189.30749      810.64654    
     62300  -60844.593      396.20697     -60448.386      186.82377      189.28846      810.95571    
     62400  -60811.487      397.0101      -60414.477      186.80813      189.27037      811.26488    
     62500  -60773.376      393.63173     -60379.744      186.79124      189.25109      811.57405    
     62600  -60744.592      401.73095     -60342.861      186.77631      189.23394      811.88322    
     62700  -60704.828      399.02333     -60305.804      186.75847      189.21437      812.19239    
     62800  -60663.875      395.52072     -60268.355      186.74352      189.19808      812.50157    
     62900  -60629.508      396.50538     -60233.002      186.72535      189.17894      812.81074    
     63000  -60597.966      400.45961     -60197.507      186.71002      189.16299      813.11991    
     63100  -60555.688      393.20612     -60162.482      186.69168      189.14437      813.42908    
     63200  -60526.941      400.22098     -60126.72       186.67541      189.12798      813.73825    
     63300  -60488.355      397.60466     -60090.75       186.65753      189.11036      814.04742    
     63400  -60452.989      398.83598     -60054.153      186.64063      189.09425      814.35659    
     63500  -60415.669      397.8014      -60017.867      186.62241      189.07739      814.66576    
     63600  -60383.292      401.033       -59982.259      186.60481      189.06157      814.97493    
     63700  -60344.448      398.50999     -59945.938      186.58694      189.04559      815.2841     
     63800  -60307.864      397.84453     -59910.02       186.5691       189.03014      815.59328    
     63900  -60271.861      398.23063     -59873.63       186.55094      189.01451      815.90245    
     64000  -60233.638      397.70595     -59835.932      186.53271      188.99889      816.21162    
     64100  -60197.644      399.20248     -59798.441      186.5146       188.9835       816.52079    
     64200  -60161.27       400.30268     -59760.968      186.49668      188.96833      816.82996    
     64300  -60122.395      398.55545     -59723.839      186.47857      188.95303      817.13913    
     64400  -60080.652      393.91205     -59686.74       186.4607       188.93789      817.4483     
     64500  -60045.952      395.57555     -59650.376      186.44279      188.92225      817.75747    
     64600  -60009.692      397.58034     -59612.112      186.42554      188.9073       818.06664    
     64700  -59977.165      402.45715     -59574.708      186.40799      188.89141      818.37582    
     64800  -59932.931      396.82354     -59536.107      186.39085      188.87586      818.68499    
     64900  -59894.779      396.65439     -59498.125      186.37421      188.85997      818.99416    
     65000  -59853.947      394.28055     -59459.667      186.35731      188.84333      819.30333    
     65100  -59818.623      396.92704     -59421.696      186.34152      188.82727      819.6125     
     65200  -59778.602      396.58133     -59382.02       186.32503      188.80983      819.92167    
     65300  -59741.604      397.99554     -59343.608      186.31029      188.79383      820.23084    
     65400  -59701.837      396.89359     -59304.943      186.2939       188.77555      820.54001    
     65500  -59661.482      395.56026     -59265.922      186.27986      188.75922      820.84918    
     65600  -59629.882      402.93888     -59226.944      186.26385      188.74059      821.15836    
     65700  -59586.732      398.77277     -59187.959      186.25027      188.72417      821.46753    
     65800  -59549.816      401.04124     -59148.775      186.23442      188.70536      821.7767     
     65900  -59508.83       400.0842      -59108.746      186.22103      188.68899      822.08587    
     66000  -59464.63       394.93427     -59069.696      186.20538      188.67065      822.39504    
     66100  -59430.485      401.05182     -59029.433      186.19198      188.65449      822.70421    
     66200  -59387.914      397.95563     -58989.958      186.17618      188.63622      823.01338    
     66300  -59349.156      399.62132     -58949.535      186.16266      188.62043      823.32255    
     66400  -59304.648      395.68953     -58908.958      186.14702      188.60287      823.63172    
     66500  -59267.598      398.52571     -58869.072      186.13331      188.58753      823.94089    
     66600  -59223.733      395.23298     -58828.5        186.11773      188.57058      824.25007    
     66700  -59183.78       396.43262     -58787.348      186.10374      188.55547      824.55924    
     66800  -59141.507      394.50528     -58747.002      186.08854      188.53958      824.86841    
     66900  -59102.327      396.98483     -58705.342      186.07379      188.52458      825.17758    
     67000  -59063.24       398.81669     -58664.424      186.05862      188.51003      825.48675    
     67100  -59022.294      400.47547     -58621.819      186.04291      188.49532      825.79592    
     67200  -58982.352      402.93151     -58579.42       186.028        188.48198      826.10509    
     67300  -58937.285      399.87978     -58537.405      186.01168      188.46765      826.41426    
     67400  -58892.441      397.92853     -58494.513      185.99651      188.45484      826.72343    
     67500  -58857.326      404.15255     -58453.174      185.98008      188.44093      827.03261    
     67600  -58807.686      397.89122     -58409.795      185.96503      188.42843      827.34178    
     67700  -58769.223      402.04783     -58367.175      185.9485       188.41458      827.65095    
     67800  -58725.583      400.57773     -58325.005      185.93389      188.40263      827.96012    
     67900  -58680.972      398.84911     -58282.123      185.91763      188.38883      828.26929    
     68000  -58638.266      399.14121     -58239.124      185.90323      188.37691      828.57846    
     68100  -58599.273      403.52009     -58195.753      185.88746      188.36309      828.88763    
     68200  -58555.735      402.18405     -58153.551      185.87291      188.35052      829.1968     
     68300  -58508.508      399.1265      -58109.382      185.85829      188.33738      829.50597    
     68400  -58463.811      398.20803     -58065.603      185.8441       188.32435      829.81515    
[...]
     81600  -69711.989      511.29059     -69200.699      185.2599       187.75856      870.62573    
     81700  -69904.043      507.37986     -69396.663      185.27621      187.77514      870.9349     
     81800  -70095.221      505.51613     -69589.705      185.29238      187.79161      871.24407    
     81900  -70281.454      501.45716     -69779.997      185.30841      187.80793      871.55324    
     82000  -70467.092      499.37022     -69967.721      185.32428      187.8241       871.86241    
     82100  -70650.269      497.16205     -70153.107      185.34006      187.84019      872.17158    
     82200  -70830.216      493.9643      -70336.252      185.35567      187.85611      872.48075    
     82300  -71009.131      491.87323     -70517.258      185.37116      187.87193      872.78992    
     82400  -71186.994      490.70917     -70696.285      185.38647      187.88756      873.09909    
     82500  -71362.138      488.70814     -70873.43       185.40166      187.9031       873.40827    
     82600  -71535.357      486.53443     -71048.823      185.41678      187.91857      873.71744    
     82700  -71707.184      484.58223     -71222.601      185.43181      187.93396      874.02661    
     82800  -71877.663      482.83054     -71394.833      185.44669      187.94921      874.33578    
     82900  -72046.679      481.15638     -71565.522      185.46141      187.96431      874.64495    
     83000  -72214.178      479.50305     -71734.675      185.47606      187.97933      874.95412    
     83100  -72380.29       477.95524     -71902.335      185.49057      187.99423      875.26329    
     83200  -72545.168      476.59499     -72068.573      185.50499      188.00902      875.57246    
     83300  -72708.858      475.39507     -72233.463      185.51931      188.02372      875.88163    
     83400  -72869.454      472.78854     -72396.666      185.53353      188.03832      876.19081    
     83500  -73022.236      466.63545     -72555.6        185.54787      188.05306      876.49998    
     83600  -73171.594      462.29005     -72709.304      185.56212      188.06769      876.80915    
     83700  -73315.722      457.79647     -72857.926      185.57644      188.08241      877.11832    
     83800  -73454.994      453.34856     -73001.645      185.59071      188.09707      877.42749    
     83900  -73589.545      449.02306     -73140.522      185.60504      188.1118       877.73666    
     84000  -73719.237      444.6849      -73274.552      185.61939      188.12657      878.04583    
     84100  -73844.294      440.58901     -73403.705      185.63382      188.14143      878.355      
     84200  -73964.403      436.47523     -73527.928      185.64826      188.15631      878.66417    
     84300  -74079.731      432.56429     -73647.167      185.66276      188.17127      878.97334    
     84400  -74189.863      428.51531     -73761.348      185.67735      188.18632      879.28252    
     84500  -74295.031      424.63801     -73870.393      185.69203      188.20146      879.59169    
     84600  -74395.06       420.85713     -73974.203      185.70683      188.21672      879.90086    
     84700  -74489.832      417.16264     -74072.67       185.72173      188.23208      880.21003    
     84800  -74579.277      413.62292     -74165.654      185.73677      188.24759      880.5192     
     84900  -74663.206      410.19828     -74253.007      185.75196      188.26324      880.82837    
     85000  -74741.477      406.9442      -74334.533      185.76733      188.27907      881.13754    
     85100  -74813.924      403.90994     -74410.014      185.78286      188.29508      881.44671    
     85200  -74880.304      401.08259     -74479.222      185.79863      188.31131      881.75588    
     85300  -74940.36       398.49368     -74541.866      185.8146       188.32774      882.06506    
     85400  -74994.23       396.58556     -74597.645      185.83066      188.34427      882.37423    
     85500  -75042.346      395.50423     -74646.842      185.84659      188.36073      882.6834     
     85600  -75084.465      394.39941     -74690.065      185.86263      188.37728      882.99257    
     85700  -75120.49       393.23697     -74727.253      185.87882      188.39399      883.30174    
     85800  -75150.364      392.47593     -74757.888      185.89506      188.41079      883.61091    
     85900  -75174.034      392.25698     -74781.777      185.91136      188.42766      883.92008    
     86000  -75191.422      392.20958     -74799.212      185.92779      188.44472      884.22925    
     86100  -75202.441      392.00826     -74810.433      185.94425      188.46185      884.53842    
     86200  -75207.034      391.80321     -74815.231      185.96084      188.47912      884.8476     
     86300  -75205.105      391.81421     -74813.291      185.97741      188.49638      885.15677    
     86400  -75196.114      391.5283      -74804.586      185.99358      188.51323      885.46594    
     86500  -75179.346      390.65175     -74788.694      186.00953      188.5299       885.77511    
     86600  -75154.189      389.69555     -74764.494      186.02513      188.54621      886.08428    
     86700  -75120.23       388.91344     -74731.316      186.04065      188.56242      886.39345    
     86800  -75077.403      387.78409     -74689.619      186.05589      188.57833      886.70262    
     86900  -75025.505      385.30742     -74640.197      186.07116      188.59419      887.01179    
     87000  -74963.592      380.84452     -74582.748      186.0861       188.6097       887.32096    
     87100  -74891.65       375.47929     -74516.171      186.10107      188.6252       887.63013    
     87200  -74809.433      368.70088     -74440.732      186.11581      188.64044      887.93931    
     87300  -74716.787      359.3663      -74357.421      186.1305       188.65557      888.24848    
     87400  -74613.887      346.84047     -74267.047      186.14505      188.67058      888.55765    
     87500  -74501.698      331.0036      -74170.695      186.1594       188.68543      888.86682    
     87600  -74381.886      311.67625     -74070.21       186.17381      188.70036      889.17599    
     87700  -74257.173      289.12538     -73968.048      186.18779      188.71496      889.48516    
     87800  -74134.183      267.38521     -73866.798      186.2017       188.72971      889.79433    
     87900  -74116.995      357.34648     -73759.649      186.21275      188.74154      890.1035     
     88000  -74111.13       443.79534     -73667.334      186.2023       188.73062      890.41267    
     88100  -74158.043      460.88832     -73697.155      186.21903      188.7475       890.72185    
     88200  -74233.718      403.10697     -73830.611      186.22284      188.75006      891.03102    
     88300  -74282.555      373.44651     -73909.108      186.23751      188.76254      891.34019    
     88400  -74307.972      374.83571     -73933.136      186.24821      188.77211      891.64936    
     88500  -74326.929      402.44395     -73924.485      186.2595       188.78168      891.95853    
     88600  -74331.373      404.97998     -73926.393      186.27803      188.79588      892.2677     
     88700  -74354.94       402.85214     -73952.088      186.29138      188.80557      892.57687    
     88800  -74387.091      391.14264     -73995.949      186.30066      188.81655      892.88604    
     88900  -74422.27       392.42624     -74029.844      186.32242      188.8322       893.19521    
     89000  -74448.239      392.26455     -74055.974      186.33668      188.84931      893.50439    
     89100  -74466.054      393.68923     -74072.365      186.35203      188.86517      893.81356    
     89200  -74474.95       396.51991     -74078.43       186.37524      188.88493      894.12273    
     89300  -74491.321      407.7272      -74083.594      186.39657      188.9028       894.4319     
     89400  -74516.585      407.99735     -74108.588      186.42489      188.91955      894.74107    
     89500  -74525.63       381.19814     -74144.432      186.45226      188.93451      895.05024    
     89600  -74527.524      376.40781     -74151.116      186.4807       188.95901      895.35941    
     89700  -74536.208      404.62857     -74131.579      186.51006      188.98271      895.66858    
     89800  -74538.189      413.01847     -74125.17       186.54597      189.00958      895.97775    
     89900  -74564.923      412.24963     -74152.673      186.58621      189.03495      896.28692    
     90000  -74586.842      386.63833     -74200.203      186.62755      189.06053      896.5961     
     90100  -74612.224      382.27854     -74229.946      186.66505      189.08272      896.90527    
     90200  -74624.668      392.94781     -74231.72       186.70955      189.10637      897.21444    
     90300  -74625.88       401.76564     -74224.115      186.75481      189.12778      897.52361    
     90400  -74628.181      403.37251     -74224.808      186.80158      189.14842      897.83278    
     90500  -74634.515      396.38179     -74238.134      186.84895      189.17038      898.14195    
     90600  -74647.136      394.1544      -74252.982      186.88639      189.18937      898.45112    
     90700  -74651.534      391.38018     -74260.154      186.91685      189.21218      898.76029    
     90800  -74657.101      398.10516     -74258.996      186.93525      189.23329      899.06946    
     90900  -74658.233      396.9972      -74261.236      186.94908      189.2571       899.37864    
     91000  -74669.83       398.89585     -74270.934      186.96248      189.28572      899.68781    
     91100  -74677.874      394.88958     -74282.985      186.97738      189.31127      899.99698    
     91200  -74679.659      389.71554     -74289.943      186.994        189.33409      900.30615    
     91300  -74675.682      389.17564     -74286.506      187.00948      189.35428      900.61532    
     91400  -74665.258      394.35736     -74270.9        187.02812      189.3723       900.92449    
     91500  -74661.666      407.5379      -74254.128      187.04761      189.3898       901.23366    
     91600  -74672.646      413.91244     -74258.734      187.06971      189.4004       901.54283    
     91700  -74686.151      395.34187     -74290.809      187.09553      189.41018      901.852      
     91800  -74706.263      385.23285     -74321.03       187.12221      189.41449      902.16117    
     91900  -74718.847      388.28931     -74330.557      187.15336      189.41849      902.47035    
     92000  -74716.702      392.87461     -74323.827      187.18532      189.4249       902.77952    
     92100  -74722.073      407.1826      -74314.89       187.21748      189.42878      903.08869    
     92200  -74721.942      404.73334     -74317.208      187.25108      189.43214      903.39786    
     92300  -74730.571      396.48455     -74334.087      187.27838      189.43287      903.70703    
     92400  -74740.332      386.56581     -74353.767      187.30264      189.43572      904.0162     
     92500  -74744.192      385.6013      -74358.591      187.32075      189.43981      904.32537    
     92600  -74753.793      403.3597      -74350.434      187.33749      189.44635      904.63454    
     92700  -74763.411      406.33338     -74357.078      187.35205      189.45404      904.94371    
     92800  -74780.843      396.8136      -74384.03       187.36832      189.46339      905.25289    
     92900  -74792.944      380.14883     -74412.795      187.37931      189.47074      905.56206    
     93000  -74806.136      385.54298     -74420.593      187.39155      189.48462      905.87123    
     93100  -74800.275      393.39308     -74406.881      187.39757      189.49648      906.1804     
     93200  -74799.879      409.51209     -74390.367      187.4058       189.51483      906.48957    
     93300  -74803.286      409.6157      -74393.67       187.41009      189.53045      906.79874    
     93400  -74809.604      387.52055     -74422.084      187.41307      189.55184      907.10791    
     93500  -74819.75       380.64977     -74439.1        187.41195      189.56891      907.41708    
     93600  -74823.36       391.65901     -74431.701      187.41274      189.58853      907.72625    
     93700  -74821.31       405.91378     -74415.396      187.40929      189.60516      908.03543    
     93800  -74820.404      405.41838     -74414.986      187.40818      189.62398      908.3446     
     93900  -74834.21       397.40587     -74436.804      187.40541      189.64004      908.65377    
     94000  -74843.356      384.56949     -74458.787      187.40298      189.65547      908.96294    
     94100  -74848.701      387.51694     -74461.184      187.39846      189.66623      909.27211    
     94200  -74847.993      400.91223     -74447.08       187.39399      189.67676      909.58128    
     94300  -74845.03       408.27041     -74436.76       187.3873       189.68207      909.89045    
     94400  -74849.832      403.15857     -74446.674      187.38182      189.68597      910.19962    
     94500  -74857.8        391.08703     -74466.712      187.3771       189.68543      910.50879    
     94600  -74865.253      383.82192     -74481.431      187.3729       189.68164      910.81796    
     94700  -74863.125      389.70149     -74473.424      187.37058      189.67522      911.12714    
     94800  -74862.658      408.34911     -74454.309      187.36832      189.66461      911.43631    
     94900  -74859.176      406.43635     -74452.739      187.37114      189.65386      911.74548    
     95000  -74869.11       393.74066     -74475.369      187.3769       189.64259      912.05465    
     95100  -74869.082      376.8137      -74492.268      187.3829       189.63125      912.36382    
     95200  -74860.806      384.57858     -74476.228      187.39104      189.62071      912.67299    
     95300  -74847.959      408.17012     -74439.788      187.39922      189.61392      912.98216    
     95400  -74831.729      409.39023     -74422.339      187.40768      189.60779      913.29133    
     95500  -74829.64       396.68729     -74432.953      187.41505      189.60148      913.6005     
     95600  -74834.842      383.93173     -74450.91       187.42153      189.5998       913.90968    
     95700  -74838.725      385.80077     -74452.924      187.42491      189.60095      914.21885    
     95800  -74837.278      398.76188     -74438.517      187.428        189.60783      914.52802    
     95900  -74834.406      403.97876     -74430.427      187.42653      189.61569      914.83719    
     96000  -74838.117      396.27873     -74441.838      187.422        189.62793      915.14636    
     96100  -74845.331      388.19733     -74457.134      187.41485      189.64271      915.45553    
     96200  -74851.027      389.22127     -74461.806      187.41123      189.66143      915.7647     
     96300  -74858.897      398.49175     -74460.405      187.40413      189.67912      916.07387    
     96400  -74863.418      399.83075     -74463.587      187.39874      189.69961      916.38304    
     96500  -74870.502      396.19786     -74474.304      187.39267      189.71763      916.69222    
     96600  -74873.366      389.14047     -74484.226      187.39254      189.73806      917.00139    
     96700  -74879.624      392.54251     -74487.081      187.39497      189.7545       917.31056    
     96800  -74882.431      397.41387     -74485.018      187.40089      189.76885      917.61973    
     96900  -74889.394      398.89541     -74490.499      187.40863      189.78103      917.9289     
     97000  -74891.478      389.39385     -74502.084      187.42134      189.79062      918.23807    
     97100  -74896.869      389.63999     -74507.229      187.43847      189.79909      918.54724    
     97200  -74893.703      391.47212     -74502.231      187.45939      189.80431      918.85641    
     97300  -74891.679      400.88213     -74490.796      187.48132      189.80682      919.16558    
     97400  -74885.009      400.38788     -74484.621      187.5049       189.80964      919.47475    
     97500  -74882.725      394.49172     -74488.233      187.5306       189.81264      919.78393    
     97600  -74885.839      393.2134      -74492.626      187.55367      189.81277      920.0931     
     97700  -74887.079      393.36607     -74493.713      187.5781       189.81589      920.40227    
     97800  -74877.254      389.22425     -74488.03       187.59753      189.81959      920.71144    
     97900  -74867.46       392.95391     -74474.506      187.615        189.82273      921.02061    
     98000  -74853.121      398.75596     -74454.365      187.63085      189.82735      921.32978    
     98100  -74844.994      405.89755     -74439.097      187.64747      189.83507      921.63895    
     98200  -74841.895      398.31697     -74443.578      187.65826      189.84054      921.94812    
     98300  -74841.965      387.61075     -74454.355      187.66769      189.85057      922.25729    
     98400  -74839.085      385.8226      -74453.262      187.67215      189.8614       922.56647    
     98500  -74824.652      389.51166     -74435.14       187.67495      189.87773      922.87564    
     98600  -74808.589      400.68246     -74407.907      187.67387      189.89483      923.18481    
     98700  -74792.07       405.27644     -74386.794      187.67009      189.91648      923.49398    
     98800  -74792.49       407.37188     -74385.118      187.66439      189.93914      923.80315    
     98900  -74785.304      385.4162      -74399.887      187.65728      189.96263      924.11232    
     99000  -74793.328      388.54967     -74404.778      187.65307      189.98599      924.42149    
     99100  -74778.384      386.12884     -74392.255      187.64928      190.00761      924.73066    
     99200  -74766.038      395.53375     -74370.505      187.6454       190.03101      925.03983    
     99300  -74762.445      408.30223     -74354.143      187.64353      190.05127      925.34901    
     99400  -74761.151      404.59422     -74356.557      187.64343      190.07445      925.65818    
     99500  -74764.841      391.28319     -74373.558      187.64538      190.09496      925.96735    
     99600  -74775.713      390.64545     -74385.067      187.65159      190.10885      926.27652    
     99700  -74766.367      383.34497     -74383.022      187.66197      190.11854      926.58569    
     99800  -74771.289      400.07763     -74371.211      187.67232      190.12329      926.89486    
     99900  -74770.293      404.62911     -74365.664      187.68723      190.12598      927.20403    
    100000  -74778.907      400.97026     -74377.937      187.70162      190.12465      927.5132     
Loop time of 12533.9 on 12 procs for 100000 steps with 10200 atoms

Performance: 0.689 ns/day, 34.816 hours/ns, 7.978 timesteps/s, 81.380 katom-step/s
59.2% CPU use with 12 MPI tasks x 1 OpenMP threads

MPI task timing breakdown:
Section |  min time  |  avg time  |  max time  |%varavg| %total
---------------------------------------------------------------
Pair    | 1680.7     | 2028       | 2421.2     | 481.9 | 16.18
Neigh   | 2.7048     | 6.4408     | 9.4007     |  82.8 |  0.05
Comm    | 1047.3     | 1367.3     | 1677.6     | 494.3 | 10.91
Output  | 32.014     | 32.924     | 33.807     |  10.8 |  0.26
Modify  | 7939.5     | 8125.5     | 8686.7     | 266.5 | 64.83
Other   |            | 973.8      |            |       |  7.77

Nlocal:            850 ave        1371 max          13 min
Histogram: 2 0 0 1 3 0 0 0 1 5
Nghost:        1136.58 ave        1809 max          12 min
Histogram: 2 0 0 1 3 0 0 0 0 6
Neighs:              0 ave           0 max           0 min
Histogram: 12 0 0 0 0 0 0 0 0 0

Total # of neighbors = 0
Ave neighs/atom = 0
Neighbor list builds = 599
Dangerous builds = 0
Total wall time: 3:28:57
