LAMMPS (2 Aug 2023 - Update 3)
OMP_NUM_THREADS environment is not set. Defaulting to 1 thread. (src/comm.cpp:98)
  using 1 OpenMP thread(s) per MPI task
Reading data file ...
  orthogonal box = (-100 -100 -2.3312515) to (100 100 46.166171)
  3 by 4 by 1 MPI processor grid
  reading atoms ...
  1480 atoms
  read_data CPU = 0.043 seconds
Replication is creating a 1x1x19 = 19 times larger system...
  orthogonal box = (-100 -100 -2.3312515) to (100 100 919.11979)
  1 by 2 by 6 MPI processor grid
  28120 atoms
  replicate CPU = 0.002 seconds
System init for write_data ...
WARNING: Communication cutoff is 0.0. No ghost atoms will be generated. Atoms may get lost. (src/comm_brick.cpp:210)
Reading airebo potential file CH.airebo with DATE: 2011-10-25
Reading airebo potential file CH.airebo with DATE: 2011-10-25
Reading airebo potential file CH.airebo with DATE: 2011-10-25
Neighbor list info ...
  update: every = 1 steps, delay = 0 steps, check = yes
  max neighbors/atom: 2000, page size: 100000
  master list distance cutoff = 13.2
  ghost atom cutoff = 13.2
  binsize = 6.6, bins = 31 31 140
  6 neighbor lists, perpetual/occasional/extra = 6 0 0
  (1) pair airebo, perpetual, skip from (5)
      attributes: full, newton on, ghost
      pair build: skip/ghost
      stencil: none
      bin: none
  (2) pair airebo, perpetual, skip from (5)
      attributes: full, newton on, ghost
      pair build: skip/ghost
      stencil: none
      bin: none
  (3) pair airebo, perpetual, skip from (5)
      attributes: full, newton on, ghost
      pair build: skip/ghost
      stencil: none
      bin: none
  (4) pair lj/cut, perpetual, skip from (6)
      attributes: half, newton on, cut 13
      pair build: skip
      stencil: none
      bin: none
  (5) neighbor class addition, perpetual
      attributes: full, newton on, ghost
      pair build: full/bin/ghost
      stencil: full/ghost/bin/3d
      bin: standard
  (6) neighbor class addition, perpetual
      attributes: half, newton on, cut 13
      pair build: half/bin/atomonly/newton
      stencil: half/bin/3d
      bin: standard
Setting up sd style minimization ...
  Unit style    : metal
  Current step  : 0
Per MPI rank memory allocation (min/avg/max) = 17.75 | 17.94 | 18.14 Mbytes
   Step          Temp          E_pair         E_mol          TotEng         Press     
         0   0             -204079.3       0             -204079.3       378.42796    
         4   0             -204584.16      0             -204584.16      50.287364    
Loop time of 0.97398 on 12 procs for 4 steps with 28120 atoms

77.5% CPU use with 12 MPI tasks x 1 OpenMP threads

Minimization stats:
  Stopping criterion = energy tolerance
  Energy initial, next-to-last, final = 
     -204079.301001516  -204571.682227511  -204584.162199458
  Force two-norm initial, final = 232.45619 37.244476
  Force max component initial, final = 3.434546 0.53009031
  Final line search alpha, max atom move = 0.13584282 0.072008965
  Iterations, force evaluations = 4 8

MPI task timing breakdown:
Section |  min time  |  avg time  |  max time  |%varavg| %total
---------------------------------------------------------------
Pair    | 0.27543    | 0.35515    | 0.60207    |  19.9 | 36.46
Neigh   | 0          | 0          | 0          |   0.0 |  0.00
Comm    | 0.037968   | 0.21837    | 0.41092    |  31.1 | 22.42
Output  | 0          | 0          | 0          |   0.0 |  0.00
Modify  | 0          | 0          | 0          |   0.0 |  0.00
Other   |            | 0.4005     |            |       | 41.12

Nlocal:        2343.33 ave        2412 max        2271 min
Histogram: 6 0 0 0 0 0 0 0 2 4
Nghost:         3149.5 ave        3225 max        3070 min
Histogram: 3 3 0 0 0 0 0 0 3 3
Neighs:              0 ave           0 max           0 min
Histogram: 12 0 0 0 0 0 0 0 0 0

Total # of neighbors = 0
Ave neighs/atom = 0
Neighbor list builds = 0
Dangerous builds = 0
Setting up Verlet run ...
  Unit style    : metal
  Current step  : 4
  Time step     : 0.001
Per MPI rank memory allocation (min/avg/max) = 18.38 | 18.86 | 19.14 Mbytes
   Step          Temp          E_pair         E_mol          TotEng         Press          Volume    
         4   300           -204584.16      0             -203493.76      81.886311      36858041     
Loop time of 0.0139363 on 12 procs for 0 steps with 28120 atoms

61.7% CPU use with 12 MPI tasks x 1 OpenMP threads

MPI task timing breakdown:
Section |  min time  |  avg time  |  max time  |%varavg| %total
---------------------------------------------------------------
Pair    | 0          | 0          | 0          |   0.0 |  0.00
Neigh   | 0          | 0          | 0          |   0.0 |  0.00
Comm    | 0          | 0          | 0          |   0.0 |  0.00
Output  | 0          | 0          | 0          |   0.0 |  0.00
Modify  | 0          | 0          | 0          |   0.0 |  0.00
Other   |            | 0.01394    |            |       |100.00

Nlocal:        2343.33 ave        2353 max        2331 min
Histogram: 2 0 2 0 0 2 1 1 1 3
Nghost:        3148.83 ave        3166 max        3129 min
Histogram: 1 0 3 0 1 2 1 2 0 2
Neighs:              0 ave           0 max           0 min
Histogram: 12 0 0 0 0 0 0 0 0 0

Total # of neighbors = 0
Ave neighs/atom = 0
Neighbor list builds = 0
Dangerous builds = 0
WARNING: Dump 2 includes no atom IDs and is not sorted by ID. This may complicate post-processing tasks or visualization (src/dump.cpp:221)
Setting up Verlet run ...
  Unit style    : metal
  Current step  : 0
  Time step     : 0.001
Per MPI rank memory allocation (min/avg/max) = 19.88 | 20.36 | 20.64 Mbytes
   Step         PotEng         KinEng         TotEng           Lx             Ly             Lz      
         0  -204584.16      1090.3998     -203493.76      200            200            921.45104    
       100  -203975.04      550.39995     -203424.64      200.00286      199.98836      921.91176    
       200  -204029.75      696.33325     -203333.42      200.0085       199.96702      922.37249    
       300  -203940.69      715.20137     -203225.49      200.03724      199.95512      922.83321    
       400  -203902.81      794.74458     -203108.06      200.05292      199.92484      923.29394    
       500  -203857.53      872.7958      -202984.74      200.0865       199.90904      923.75466    
       600  -203802.95      944.48951     -202858.46      200.13097      199.89543      924.21539    
       700  -203742.25      1003.5249     -202738.72      200.14999      199.85504      924.67612    
       800  -203663.15      1032.6565     -202630.49      200.20205      199.82638      925.13684    
       900  -203641.73      1096.5323     -202545.2       200.23819      199.77754      925.59757    
      1000  -203594.99      1090.3724     -202504.62      200.26692      199.72507      926.05829    
      1100  -203627.57      1107.6427     -202519.93      200.31701      199.68712      926.51902    
      1200  -203638.17      1078.9692     -202559.2       200.33199      199.64533      926.97974    
      1300  -203679.6       1097.2124     -202582.38      200.3469       199.61901      927.44047    
      1400  -203654.02      1084.9247     -202569.09      200.36015      199.60844      927.90119    
      1500  -203620.98      1093.6253     -202527.35      200.33785      199.60068      928.36192    
      1600  -203598.29      1115.8346     -202482.46      200.32474      199.6165       928.82265    
      1700  -203564.41      1110.6641     -202453.75      200.29773      199.64654      929.28337    
      1800  -203582.63      1113.1276     -202469.5       200.26451      199.68703      929.7441     
      1900  -203589.13      1072.8355     -202516.29      200.23682      199.7428       930.20482    
      2000  -203621.3       1068.3812     -202552.92      200.17463      199.79128      930.66555    
      2100  -203602.71      1048.659      -202554.06      200.12616      199.85186      931.12627    
      2200  -203591.64      1083.1463     -202508.5       200.07408      199.9059       931.587      
      2300  -203551.26      1095.7083     -202455.55      200.02069      199.95197      932.04772    
      2400  -203543.86      1119.0868     -202424.77      199.98662      199.9938       932.50845    
      2500  -203533.97      1108.0274     -202425.94      199.95222      200.01962      932.96917    
      2600  -203537.71      1092.1158     -202445.6       199.92129      200.033        933.4299     
      2700  -203538.36      1081.4841     -202456.87      199.9077       200.04462      933.89063    
      2800  -203517.79      1076.9576     -202440.83      199.89247      200.04593      934.35135    
      2900  -203500.04      1092.2595     -202407.78      199.88512      200.04328      934.81208    
      3000  -203473.16      1095.0366     -202378.13      199.8917       200.04126      935.2728     
      3100  -203484.67      1107.1033     -202377.57      199.89007      200.02576      935.73353    
      3200  -203486.87      1084.9065     -202401.96      199.89961      200.01129      936.19425    
      3300  -203502.21      1081.2737     -202420.94      199.911        199.99246      936.65498    
      3400  -203502.96      1085.4413     -202417.52      199.91886      199.97112      937.1157     
      3500  -203479.28      1091.3393     -202387.94      199.93215      199.95258      937.57643    
      3600  -203459.35      1105.4663     -202353.88      199.94119      199.93466      938.03716    
      3700  -203446.39      1106.2441     -202340.14      199.94331      199.91973      938.49788    
      3800  -203452.78      1099.9546     -202352.82      199.94333      199.91218      938.95861    
      3900  -203438.2       1067.2093     -202370.99      199.93287      199.90954      939.41933    
      4000  -203430.19      1066.4609     -202363.73      199.91915      199.91235      939.88006    
      4100  -203405.9       1080.9308     -202324.97      199.91033      199.92567      940.34078    
      4200  -203393.41      1108.0688     -202285.34      199.88925      199.94042      940.80151    
      4300  -203375.99      1102.6057     -202273.38      199.86838      199.96222      941.26223    
      4400  -203393.33      1106.6107     -202286.72      199.84435      199.98457      941.72296    
      4500  -203388.13      1085.9231     -202302.21      199.81607      200.00673      942.18369    
      4600  -203376.34      1077.4175     -202298.93      199.78945      200.02887      942.64441    
      4700  -203357.66      1089.889      -202267.77      199.76427      200.04946      943.10514    
      4800  -203323.13      1098.117      -202225.01      199.74019      200.06569      943.56586    
      4900  -203306.66      1108.1383     -202198.52      199.72161      200.07803      944.02659    
      5000  -203284.64      1090.7161     -202193.92      199.70575      200.08386      944.48731    
      5100  -203295.67      1094.0437     -202201.63      199.6949       200.0836       944.94804    
      5200  -203275.13      1071.2211     -202203.91      199.6939       200.08246      945.40876    
      5300  -203269.13      1081.1562     -202187.98      199.6905       200.07492      945.86949    
      5400  -203251.74      1094.6386     -202157.1       199.68974      200.06555      946.33021    
      5500  -203232.28      1105.3767     -202126.9       199.68992      200.05404      946.79094    
      5600  -203224.72      1107.6697     -202117.05      199.68704      200.04003      947.25167    
      5700  -203212.81      1087.4016     -202125.41      199.68749      200.02768      947.71239    
      5800  -203209.45      1081.6841     -202127.76      199.68942      200.01559      948.17312    
      5900  -203195.96      1084.6637     -202111.3       199.69096      200.00579      948.63384    
      6000  -203170.44      1091.1348     -202079.3       199.68791      199.99909      949.09457    
      6100  -203144.38      1095.3196     -202049.06      199.68053      199.99515      949.55529    
      6200  -203129.48      1095.3376     -202034.15      199.67161      199.99522      950.01602    
      6300  -203120.86      1088.532      -202032.32      199.65948      199.99809      950.47674    
      6400  -203111.28      1080.3197     -202030.96      199.64573      200.00361      950.93747    
      6500  -203097.55      1082.7819     -202014.77      199.6302       200.01128      951.3982     
      6600  -203071.3       1083.9634     -201987.34      199.61117      200.01967      951.85892    
      6700  -203053.46      1093.8771     -201959.58      199.59339      200.02951      952.31965    
      6800  -203034.42      1096.775      -201937.65      199.57828      200.03879      952.78037    
      6900  -203017.77      1090.9537     -201926.81      199.56348      200.04573      953.2411     
      7000  -203001.63      1081.6687     -201919.96      199.54773      200.04907      953.70182    
      7100  -202988.29      1082.8522     -201905.43      199.53481      200.05167      954.16255    
      7200  -202970.78      1090.2885     -201880.49      199.52105      200.05171      954.62327    
      7300  -202942.37      1091.4367     -201850.93      199.5103       200.05046      955.084      
      7400  -202923.36      1097.9321     -201825.43      199.50384      200.04782      955.54473    
      7500  -202904.62      1091.907      -201812.72      199.49499      200.04125      956.00545    
      7600  -202897.02      1088.4348     -201808.58      199.48631      200.03262      956.46618    
      7700  -202883.58      1084.9126     -201798.67      199.48025      200.02474      956.9269     
      7800  -202858.54      1084.1563     -201774.38      199.47447      200.01663      957.38763    
      7900  -202832.27      1093.7471     -201738.52      199.4687       200.00874      957.84835    
      8000  -202813.69      1105.6517     -201708.04      199.46262      200.0018       958.30908    
      8100  -202786.36      1091.6553     -201694.71      199.45497      199.99573      958.7698     
      8200  -202782.51      1089.0962     -201693.41      199.44534      199.99097      959.23053    
      8300  -202769.11      1080.2158     -201688.89      199.43766      199.98902      959.69126    
      8400  -202748.15      1080.9015     -201667.25      199.42413      199.98611      960.15198    
      8500  -202717.4       1087.0968     -201630.3       199.41002      199.98461      960.61271    
      8600  -202684.59      1095.758      -201588.83      199.39755      199.98453      961.07343    
      8700  -202669.97      1106.7531     -201563.22      199.38121      199.98442      961.53416    
      8800  -202645.82      1087.9326     -201557.88      199.36805      199.98649      961.99488    
      8900  -202631.62      1078.8205     -201552.8       199.35421      199.98785      962.45561    
      9000  -202619.34      1083.7189     -201535.62      199.33818      199.98777      962.91633    
      9100  -202593.93      1088.3639     -201505.56      199.3227       199.98825      963.37706    
      9200  -202570.17      1098.3857     -201471.79      199.30733      199.98873      963.83778    
      9300  -202539.09      1095.2746     -201443.81      199.29201      199.98748      964.29851    
      9400  -202514.54      1087.7387     -201426.8       199.2779       199.98389      964.75924    
      9500  -202501.19      1087.0657     -201414.12      199.26567      199.97859      965.21996    
      9600  -202473.56      1079.3636     -201394.19      199.25545      199.97202      965.68069    
      9700  -202461.23      1093.9359     -201367.3       199.24523      199.96582      966.14141    
      9800  -202429.46      1093.1118     -201336.35      199.23306      199.95952      966.60214    
      9900  -202398.01      1089.965      -201308.04      199.22037      199.95358      967.06286    
     10000  -202380.39      1094.2816     -201286.11      199.20857      199.94759      967.52359    
     10100  -202355.18      1084.7827     -201270.4       199.19783      199.94188      967.98431    
     10200  -202340.27      1088.4261     -201251.84      199.18411      199.93515      968.44504    
     10300  -202306.17      1082.9305     -201223.24      199.17221      199.92952      968.90577    
     10400  -202281.56      1093.1343     -201188.43      199.16163      199.92478      969.36649    
     10500  -202265.9       1106.3452     -201159.55      199.14809      199.91966      969.82722    
     10600  -202230.91      1089.5101     -201141.39      199.13507      199.9166       970.28794    
     10700  -202208.47      1085.8044     -201122.67      199.11838      199.91418      970.74867    
     10800  -202185.17      1084.5862     -201100.58      199.10062      199.91284      971.20939    
     10900  -202162.67      1092.3017     -201070.37      199.08391      199.91146      971.67012    
     11000  -202122.22      1085.4323     -201036.78      199.06557      199.90757      972.13084    
     11100  -202102.2       1095.2904     -201006.91      199.05044      199.90447      972.59157    
     11200  -202075.29      1090.438      -200984.85      199.03698      199.90156      973.0523     
     11300  -202052.22      1088.8614     -200963.36      199.01928      199.89598      973.51302    
     11400  -202025.82      1086.285      -200939.54      199.00255      199.89137      973.97375    
     11500  -201998.88      1088.0512     -200910.83      198.98729      199.88715      974.43447    
     11600  -201972.21      1093.3604     -200878.85      198.97         199.88032      974.8952     
     11700  -201941.38      1090.4288     -200850.95      198.95682      199.87282      975.35592    
     11800  -201916.22      1092.4803     -200823.74      198.94508      199.86291      975.81665    
     11900  -201890.67      1091.9615     -200798.71      198.93112      199.85022      976.27737    
     12000  -201867.59      1089.5463     -200778.05      198.9199       199.84004      976.7381     
     12100  -201836.96      1082.73       -200754.23      198.90544      199.83048      977.19882    
     12200  -201812.32      1090.316      -200722         198.88997      199.82152      977.65955    
     12300  -201776.41      1089.7058     -200686.71      198.87845      199.81557      978.12028    
     12400  -201744.35      1093.8678     -200650.49      198.8607       199.80727      978.581      
     12500  -201711.87      1091.2152     -200620.66      198.84293      199.79996      979.04173    
     12600  -201694.68      1099.6714     -200595.01      198.82585      199.79411      979.50245    
     12700  -201661.8       1087.511      -200574.29      198.80579      199.78745      979.96318    
     12800  -201642.77      1091.4059     -200551.36      198.78938      199.7824       980.4239     
     12900  -201609.93      1089.4055     -200520.53      198.7743       199.77803      980.88463    
     13000  -201573.68      1090.9081     -200482.77      198.7562       199.77215      981.34535    
     13100  -201541.26      1095.0473     -200446.22      198.74035      199.76763      981.80608    
     13200  -201511.2       1097.1278     -200414.07      198.7224       199.76107      982.26681    
     13300  -201482.88      1091.9632     -200390.92      198.70373      199.75338      982.72753    
     13400  -201451.75      1081.2786     -200370.47      198.6886       199.74781      983.18826    
     13500  -201422.52      1085.191      -200337.33      198.66939      199.74014      983.64898    
     13600  -201384.95      1090.3394     -200294.61      198.65102      199.73157      984.10971    
     13700  -201352.83      1096.9233     -200255.91      198.63476      199.72319      984.57043    
     13800  -201320.85      1093.0482     -200227.8       198.61769      199.71392      985.03116    
     13900  -201300.88      1094.0378     -200206.84      198.60398      199.70541      985.49188    
     14000  -201272.2       1089.0849     -200183.11      198.58862      199.69634      985.95261    
     14100  -201231.87      1082.7304     -200149.14      198.57195      199.6864       986.41334    
     14200  -201194.27      1088.6333     -200105.64      198.55621      199.67672      986.87406    
     14300  -201157.88      1093.2123     -200064.67      198.53937      199.66632      987.33479    
     14400  -201129.48      1098.1032     -200031.38      198.52314      199.65544      987.79551    
     14500  -201099.78      1091.3766     -200008.4       198.50797      199.6446       988.25624    
     14600  -201073.41      1086.4648     -199986.95      198.49199      199.63344      988.71696    
     14700  -201037.15      1081.0639     -199956.09      198.47646      199.62321      989.17769    
     14800  -201001.88      1089.5857     -199912.29      198.45924      199.61435      989.63841    
     14900  -200960.76      1091.1319     -199869.63      198.43901      199.60674      990.09914    
     15000  -200931.98      1095.319      -199836.66      198.41904      199.60041      990.55986    
     15100  -200899.5       1087.9142     -199811.58      198.39939      199.59408      991.02059    
     15200  -200872.24      1086.335      -199785.9       198.38152      199.58766      991.48132    
     15300  -200833.56      1081.846      -199751.71      198.36489      199.58128      991.94204    
     15400  -200801.32      1092.2493     -199709.07      198.34621      199.57265      992.40277    
     15500  -200761.66      1093.5599     -199668.1       198.32894      199.56455      992.86349    
     15600  -200731.23      1097.4841     -199633.74      198.30816      199.55486      993.32422    
     15700  -200690.12      1084.6306     -199605.49      198.28666      199.54477      993.78494    
     15800  -200665.08      1089.8161     -199575.27      198.26838      199.53565      994.24567    
     15900  -200628.68      1088.619      -199540.06      198.24897      199.52505      994.70639    
     16000  -200584.14      1084.7079     -199499.43      198.23186      199.51476      995.16712    
     16100  -200549.03      1091.9677     -199457.07      198.21712      199.50418      995.62785    
     16200  -200510.41      1088.8892     -199421.52      198.19867      199.49147      996.08857    
     16300  -200490.21      1089.4625     -199400.75      198.18177      199.48067      996.5493     
     16400  -200454.99      1088.1131     -199366.88      198.16441      199.47043      997.01002    
     16500  -200412.53      1086.0957     -199326.43      198.14468      199.45942      997.47075    
     16600  -200370.41      1089.0184     -199281.39      198.127        199.45048      997.93147    
     16700  -200330.57      1093.8133     -199236.76      198.107        199.44052      998.3922     
     16800  -200304.15      1103.4173     -199200.74      198.08866      199.43121      998.85292    
     16900  -200255.63      1087.4163     -199168.21      198.07253      199.42198      999.31365    
     17000  -200224.97      1087.3133     -199137.66      198.05166      199.41079      999.77438    
     17100  -200194.22      1089.3652     -199104.86      198.0326       199.40119      1000.2351    
     17200  -200157.16      1092.639      -199064.52      198.01318      199.39103      1000.6958    
     17300  -200106.17      1091.6429     -199014.52      197.99258      199.37984      1001.1566    
     17400  -200066.55      1090.7971     -198975.75      197.9757       199.36989      1001.6173    
     17500  -200030.43      1083.029      -198947.4       197.95876      199.35958      1002.078     
     17600  -200007.65      1090.6467     -198917.01      197.93785      199.3472       1002.5387    
     17700  -199969.58      1091.6161     -198877.97      197.92054      199.33748      1002.9995    
     17800  -199925.87      1090.7698     -198835.1       197.90188      199.32795      1003.4602    
     17900  -199888.04      1098.8692     -198789.17      197.8804       199.31766      1003.9209    
     18000  -199849.04      1101.6245     -198747.41      197.86125      199.30873      1004.3816    
     18100  -199812.89      1091.1292     -198721.76      197.84068      199.29858      1004.8424    
     18200  -199784.2       1092.5194     -198691.68      197.82129      199.2878       1005.3031    
     18300  -199733.47      1086.1451     -198647.32      197.80465      199.27796      1005.7638    
     18400  -199693.27      1094.0086     -198599.26      197.78634      199.26675      1006.2245    
     18500  -199648.39      1092.7907     -198555.6       197.76816      199.25502      1006.6853    
     18600  -199608.16      1090.4389     -198517.72      197.74965      199.24327      1007.146     
     18700  -199584.44      1089.9923     -198494.45      197.7311       199.23106      1007.6067    
     18800  -199536.67      1079.1458     -198457.53      197.71307      199.21888      1008.0674    
     18900  -199493.96      1084.556      -198409.4       197.69576      199.20704      1008.5282    
     19000  -199450.73      1088.3354     -198362.39      197.67915      199.19529      1008.9889    
     19100  -199413.38      1093.465      -198319.92      197.66059      199.18281      1009.4496    
     19200  -199375.05      1090.0678     -198284.98      197.64317      199.17162      1009.9103    
     19300  -199340.46      1080.6807     -198259.78      197.62386      199.16111      1010.3711    
     19400  -199308.29      1087.3919     -198220.9       197.60182      199.14943      1010.8318    
     19500  -199249.86      1077.7499     -198172.11      197.58338      199.13946      1011.2925    
     19600  -199211.24      1090.1322     -198121.11      197.56457      199.12926      1011.7532    
     19700  -199162.8       1089.7033     -198073.09      197.54383      199.11881      1012.214     
     19800  -199113.12      1085.6672     -198027.45      197.52621      199.11043      1012.6747    
     19900  -199089.48      1105.4192     -197984.06      197.50748      199.10087      1013.1354    
     20000  -199048.72      1099.4869     -197949.23      197.48831      199.09016      1013.5961    
     20100  -198998.55      1081.1775     -197917.37      197.47069      199.07915      1014.0569    
     20200  -198962.74      1089.7617     -197872.98      197.45141      199.06617      1014.5176    
     20300  -198912.41      1092.2943     -197820.12      197.4352       199.05384      1014.9783    
     20400  -198866.56      1092.0316     -197774.53      197.42011      199.04243      1015.439     
     20500  -198820.61      1086.225      -197734.39      197.40226      199.02941      1015.8998    
     20600  -198780.86      1084.7956     -197696.07      197.38674      199.01743      1016.3605    
     20700  -198742.5       1085.8922     -197656.6       197.36988      199.00469      1016.8212    
     20800  -198703.62      1088.5896     -197615.03      197.35266      198.99217      1017.2819    
     20900  -198660.63      1084.8846     -197575.75      197.33816      198.98039      1017.7427    
     21000  -198619.65      1090.5314     -197529.12      197.32079      198.96726      1018.2034    
     21100  -198567.6       1090.6095     -197476.99      197.3043       198.95548      1018.6641    
     21200  -198521.55      1092.186      -197429.36      197.28735      198.94364      1019.1248    
     21300  -198488.96      1096.8141     -197392.14      197.26954      198.93128      1019.5856    
     21400  -198449.64      1090.2431     -197359.4       197.25377      198.9201       1020.0463    
     21500  -198403.9       1089.7257     -197314.17      197.23469      198.9076       1020.507     
     21600  -198349.3       1082.6228     -197266.68      197.21702      198.89547      1020.9677    
     21700  -198315.54      1094.9719     -197220.57      197.20022      198.88429      1021.4285    
     21800  -198261.91      1087.872      -197174.04      197.18202      198.87282      1021.8892    
     21900  -198218.47      1089.3175     -197129.15      197.16877      198.86353      1022.3499    
     22000  -198177.17      1096.6518     -197080.52      197.1525       198.85287      1022.8107    
     22100  -198128.23      1105.7689     -197022.46      197.13337      198.84101      1023.2714    
     22200  -198079.25      1098.0401     -196981.21      197.11596      198.83045      1023.7321    
     22300  -198035.66      1087.4632     -196948.2       197.09586      198.81817      1024.1928    
     22400  -197989.19      1080.0404     -196909.15      197.0782       198.80653      1024.6536    
     22500  -197960.62      1096.0917     -196864.52      197.06327      198.79591      1025.1143    
     22600  -197904.92      1093.4432     -196811.48      197.04687      198.78412      1025.575     
     22700  -197853.75      1099.8732     -196753.88      197.03266      198.77321      1026.0357    
     22800  -197805.7       1095.2073     -196710.49      197.0173       198.76267      1026.4965    
     22900  -197772.34      1097.227      -196675.11      197.00009      198.75231      1026.9572    
     23000  -197725.36      1093.7067     -196631.65      196.98242      198.74213      1027.4179    
     23100  -197675.65      1087.274      -196588.37      196.96475      198.73251      1027.8786    
     23200  -197622.32      1081.6132     -196540.7       196.94907      198.72292      1028.3394    
     23300  -197578.09      1092.341      -196485.75      196.93374      198.71303      1028.8001    
     23400  -197524.3       1092.6766     -196431.62      196.91785      198.70224      1029.2608    
     23500  -197484.82      1096.3788     -196388.45      196.90277      198.69149      1029.7215    
     23600  -197446.81      1089.6114     -196357.2       196.88655      198.68016      1030.1823    
     23700  -197395.83      1081.8332     -196314         196.87055      198.66841      1030.643     
     23800  -197340.04      1079.2638     -196260.78      196.85694      198.65667      1031.1037    
     23900  -197299.33      1094.2332     -196205.1       196.84468      198.64407      1031.5644    
     24000  -197249.29      1095.5631     -196153.72      196.83228      198.63005      1032.0252    
     24100  -197198.28      1087.9256     -196110.35      196.81992      198.61626      1032.4859    
     24200  -197165.12      1089.7734     -196075.35      196.80616      198.60262      1032.9466    
     24300  -197114.65      1084.293      -196030.36      196.79199      198.58937      1033.4073    
     24400  -197060.26      1096.4588     -195963.8       196.77902      198.57807      1033.8681    
     24500  -197012.96      1098.6049     -195914.35      196.76201      198.56687      1034.3288    
     24600  -196959.34      1086.2236     -195873.11      196.7464       198.5575       1034.7895    
     24700  -196919.85      1087.6032     -195832.25      196.73196      198.54963      1035.2502    
     24800  -196867.15      1084.6438     -195782.5       196.7152       198.54047      1035.711     
     24900  -196811.86      1091.574      -195720.29      196.70138      198.53299      1036.1717    
     25000  -196764.79      1093.148      -195671.64      196.68475      198.52502      1036.6324    
     25100  -196720.24      1091.6737     -195628.56      196.66509      198.51704      1037.0931    
     25200  -196674.44      1086.7784     -195587.66      196.64759      198.51091      1037.5539    
     25300  -196628.01      1087.2368     -195540.77      196.62796      198.50312      1038.0146    
     25400  -196565.16      1088.2505     -195476.91      196.61193      198.49624      1038.4753    
     25500  -196520.17      1097.7848     -195422.38      196.59862      198.49015      1038.936     
     25600  -196471.1       1092.6383     -195378.47      196.58353      198.48151      1039.3968    
     25700  -196429.98      1091.5293     -195338.45      196.56958      198.473        1039.8575    
     25800  -196375.92      1084.4113     -195291.51      196.55342      198.46282      1040.3182    
     25900  -196314.01      1082.3226     -195231.69      196.53788      198.45219      1040.7789    
     26000  -196266.72      1094.0437     -195172.68      196.52612      198.44154      1041.2397    
     26100  -196216.4       1089.3054     -195127.09      196.5137       198.42806      1041.7004    
     26200  -196171.53      1090.3205     -195081.21      196.50301      198.41384      1042.1611    
     26300  -196119.12      1083.6624     -195035.46      196.49394      198.40061      1042.6218    
     26400  -196080.09      1087.1694     -194992.92      196.48092      198.38567      1043.0826    
     26500  -196028.17      1084.1804     -194943.99      196.46973      198.37252      1043.5433    
     26600  -195970.41      1088.6055     -194881.81      196.45812      198.36098      1044.004     
     26700  -195917.35      1091.1406     -194826.21      196.44293      198.3492       1044.4648    
     26800  -195869.76      1094.3678     -194775.39      196.42843      198.33919      1044.9255    
     26900  -195817.05      1086.9269     -194730.12      196.41431      198.32936      1045.3862    
     27000  -195779.9       1088.0341     -194691.87      196.40054      198.32002      1045.8469    
     27100  -195721.52      1082.314      -194639.21      196.38774      198.31254      1046.3077    
     27200  -195666.09      1090.7209     -194575.37      196.37318      198.30584      1046.7684    
     27300  -195612.39      1090.277      -194522.11      196.35694      198.29964      1047.2291    
     27400  -195563.23      1091.3442     -194471.88      196.34028      198.29405      1047.6898    
     27500  -195514.87      1092.7198     -194422.15      196.32179      198.28753      1048.1506    
     27600  -195450.45      1080.5959     -194369.85      196.30479      198.28078      1048.6113    
     27700  -195405.74      1094.5252     -194311.22      196.29017      198.27225      1049.072     
     27800  -195350.44      1096.7638     -194253.68      196.27684      198.26267      1049.5327    
     27900  -195300.46      1096.8785     -194203.58      196.26435      198.25287      1049.9935    
     28000  -195254.19      1088.2806     -194165.91      196.25175      198.2422       1050.4542    
     28100  -195209.9       1091.5712     -194118.33      196.23978      198.23041      1050.9149    
     28200  -195152.36      1089.5298     -194062.83      196.22879      198.21773      1051.3756    
     28300  -195093.02      1092.074      -194000.94      196.21759      198.20395      1051.8364    
     28400  -195038.22      1094.0182     -193944.2       196.20663      198.19085      1052.2971    
     28500  -194988.75      1093.9883     -193894.76      196.19477      198.17727      1052.7578    
     28600  -194935.56      1089.6533     -193845.91      196.18217      198.16293      1053.2185    
     28700  -194885.01      1088.2396     -193796.77      196.1717       198.15025      1053.6793    
     28800  -194832.3       1090.5736     -193741.73      196.1621       198.1387       1054.14      
     28900  -194773.54      1094.9773     -193678.57      196.1508       198.12724      1054.6007    
     29000  -194712.84      1092.3153     -193620.52      196.1388       198.11684      1055.0614    
     29100  -194661.35      1090.0512     -193571.3       196.12614      198.10752      1055.5222    
     29200  -194621.04      1087.9146     -193533.12      196.11128      198.098        1055.9829    
     29300  -194563.03      1082.3022     -193480.73      196.09617      198.08919      1056.4436    
     29400  -194507.44      1085.3732     -193422.07      196.08194      198.08229      1056.9043    
     29500  -194453.75      1090.5394     -193363.21      196.06548      198.07507      1057.3651    
     29600  -194406.5       1099.2105     -193307.29      196.0502       198.06872      1057.8258    
     29700  -194342.66      1099.1562     -193243.51      196.0366       198.06297      1058.2865    
     29800  -194287.69      1101.4334     -193186.26      196.02337      198.05591      1058.7472    
     29900  -194241.45      1096.5243     -193144.93      196.01017      198.04673      1059.208     
     30000  -194180.38      1082.9464     -193097.43      195.99803      198.03634      1059.6687    
     30100  -194125.47      1083.5594     -193041.91      195.98606      198.02528      1060.1294    
     30200  -194067.23      1087.0833     -192980.14      195.97281      198.01288      1060.5901    
     30300  -194019.74      1101.6275     -192918.12      195.96032      198.00028      1061.0509    
     30400  -193966.14      1101.4956     -192864.64      195.94802      197.98553      1061.5116    
     30500  -193907.15      1087.9361     -192819.22      195.93549      197.96979      1061.9723    
     30600  -193858.11      1083.0422     -192775.07      195.92652      197.95624      1062.433     
     30700  -193808.45      1089.1642     -192719.29      195.91771      197.94274      1062.8938    
     30800  -193752.41      1092.3232     -192660.09      195.90753      197.92928      1063.3545    
     30900  -193700.37      1101.8476     -192598.52      195.89633      197.91743      1063.8152    
     31000  -193628.99      1089.5075     -192539.48      195.88096      197.90575      1064.2759    
     31100  -193584.73      1095.8456     -192488.89      195.8654       197.8953       1064.7367    
     31200  -193530.92      1084.4195     -192446.5       195.85251      197.8868       1065.1974    
     31300  -193481.85      1089.4211     -192392.43      195.83789      197.87785      1065.6581    
     31400  -193420.82      1089.6827     -192331.14      195.82491      197.87011      1066.1188    
     31500  -193361.8       1089.1009     -192272.7       195.81254      197.86227      1066.5796    
     31600  -193307.56      1092.6422     -192214.92      195.79788      197.85279      1067.0403    
     31700  -193249.31      1093.6009     -192155.71      195.78459      197.84431      1067.501     
     31800  -193190.07      1095.5354     -192094.54      195.76919      197.83526      1067.9618    
     31900  -193132.58      1097.7481     -192034.83      195.75297      197.82616      1068.4225    
     32000  -193082.89      1094.3264     -191988.57      195.73889      197.81775      1068.8832    
     32100  -193023.94      1081.7403     -191942.2       195.72264      197.8073       1069.3439    
     32200  -192978.38      1092.3849     -191886         195.70826      197.79647      1069.8047    
     32300  -192915.7       1094.0798     -191821.62      195.6973       197.78613      1070.2654    
     32400  -192856.6       1096.4187     -191760.18      195.68598      197.7739       1070.7261    
     32500  -192799.92      1093.8515     -191706.07      195.67617      197.76234      1071.1868    
     32600  -192745.45      1091.3726     -191654.08      195.66535      197.75145      1071.6476    
     32700  -192686.4       1086.6476     -191599.75      195.64974      197.7385       1072.1083    
     32800  -192626.05      1083.781      -191542.27      195.63801      197.7261       1072.569     
     32900  -192578.87      1102.5893     -191476.28      195.6265       197.71287      1073.0297    
     33000  -192509.7       1095.4231     -191414.28      195.61362      197.69853      1073.4905    
     33100  -192460.03      1092.8778     -191367.15      195.60514      197.68637      1073.9512    
     33200  -192406.17      1087.8914     -191318.28      195.59437      197.67243      1074.4119    
     33300  -192347.54      1087.7741     -191259.76      195.5824       197.65887      1074.8726    
     33400  -192284.34      1085.253      -191199.08      195.57164      197.64834      1075.3334    
     33500  -192229.02      1094.5185     -191134.5       195.55635      197.6379       1075.7941    
     33600  -192167.31      1096.352      -191070.96      195.54123      197.6292       1076.2548    
     33700  -192110.13      1097.6349     -191012.5       195.52712      197.62113      1076.7155    
     33800  -192060.57      1094.8862     -190965.69      195.51186      197.61213      1077.1763    
     33900  -192006.39      1088.5569     -190917.84      195.49829      197.6045       1077.637     
     34000  -191950.98      1090.7839     -190860.19      195.48289      197.59693      1078.0977    
     34100  -191885.25      1091.8666     -190793.39      195.46634      197.58994      1078.5584    
     34200  -191821.04      1092.4081     -190728.63      195.45162      197.58345      1079.0192    
     34300  -191764.01      1090.3537     -190673.66      195.43503      197.57554      1079.4799    
     34400  -191708.42      1086.2365     -190622.18      195.41887      197.56695      1079.9406    
     34500  -191660.53      1092.7319     -190567.8       195.40496      197.55884      1080.4013    
     34600  -191596.04      1089.8286     -190506.21      195.39048      197.5487       1080.8621    
     34700  -191528.03      1083.5223     -190444.51      195.37832      197.539        1081.3228    
     34800  -191479.76      1095.1582     -190384.6       195.36511      197.52853      1081.7835    
     34900  -191423.84      1097.9154     -190325.93      195.35237      197.51707      1082.2442    
     35000  -191365.45      1097.2792     -190268.17      195.34222      197.5051       1082.705     
     35100  -191297.09      1089.0978     -190208         195.33078      197.49079      1083.1657    
     35200  -191243.85      1097.0622     -190146.79      195.32041      197.47764      1083.6264    
     35300  -191180.73      1093.5222     -190087.21      195.30877      197.46435      1084.0871    
     35400  -191118.16      1089.6445     -190028.51      195.29509      197.44981      1084.5479    
     35500  -191066.22      1091.7219     -189974.5       195.28443      197.43663      1085.0086    
     35600  -191012.4       1089.3915     -189923         195.27369      197.42366      1085.4693    
     35700  -190947.46      1082.8993     -189864.56      195.26098      197.4105       1085.93      
     35800  -190889.73      1095.9197     -189793.81      195.25062      197.40026      1086.3908    
     35900  -190827.63      1097.3887     -189730.24      195.23477      197.38935      1086.8515    
     36000  -190766.15      1089.8475     -189676.3       195.21828      197.38031      1087.3122    
     36100  -190716.26      1091.7741     -189624.49      195.20505      197.37342      1087.7729    
     36200  -190661.01      1091.4782     -189569.53      195.18922      197.36391      1088.2337    
     36300  -190604.76      1087.5911     -189517.17      195.17529      197.35502      1088.6944    
     36400  -190536.19      1079.0472     -189457.15      195.16226      197.34673      1089.1551    
     36500  -190483.8       1097.8083     -189386         195.14498      197.33651      1089.6159    
     36600  -190417.41      1096.2175     -189321.19      195.1297       197.32714      1090.0766    
     36700  -190349.16      1085.6404     -189263.52      195.1174       197.31902      1090.5373    
     36800  -190296.5       1086.314      -189210.19      195.10117      197.3088       1090.998     
     36900  -190239.95      1081.208      -189158.74      195.08687      197.29902      1091.4588    
     37000  -190178.27      1079.6362     -189098.64      195.07455      197.28912      1091.9195    
     37100  -190109.52      1084.6794     -189024.84      195.06096      197.27709      1092.3802    
     37200  -190060.78      1099.0104     -188961.77      195.04916      197.26525      1092.8409    
     37300  -189998.71      1093.7776     -188904.93      195.03931      197.25404      1093.3017    
     37400  -189941.56      1092.2353     -188849.32      195.02546      197.23966      1093.7624    
     37500  -189877.66      1085.7651     -188791.89      195.01311      197.22515      1094.2231    
     37600  -189816.01      1087.3825     -188728.63      195.00274      197.21134      1094.6838    
     37700  -189755.42      1096.1759     -188659.24      194.9895       197.19633      1095.1446    
     37800  -189690.01      1094.5093     -188595.51      194.97864      197.18246      1095.6053    
     37900  -189635.38      1093.4568     -188541.92      194.96932      197.16954      1096.066     
     38000  -189575.87      1079.6616     -188496.21      194.9569       197.1552       1096.5267    
     38100  -189514.07      1079.5656     -188434.5       194.9446       197.14166      1096.9875    
     38200  -189456.78      1090.7549     -188366.02      194.93271      197.12944      1097.4482    
     38300  -189390.1       1090.9199     -188299.18      194.918        197.11723      1097.9089    
     38400  -189327.15      1090.3504     -188236.8       194.90241      197.10537      1098.3696    
     38500  -189271.86      1092.7059     -188179.16      194.88987      197.09614      1098.8304    
     38600  -189218.52      1085.2529     -188133.26      194.87551      197.08727      1099.2911    
     38700  -189157.21      1080.9798     -188076.23      194.85888      197.07799      1099.7518    
     38800  -189093.52      1086.2937     -188007.23      194.84519      197.07062      1100.2125    
     38900  -189032.56      1091.5194     -187941.04      194.82991      197.06224      1100.6733    
     39000  -188977.24      1100.5468     -187876.69      194.81192      197.053        1101.134     
     39100  -188907.26      1093.6322     -187813.62      194.79569      197.04461      1101.5947    
     39200  -188840.89      1091.361      -187749.52      194.77897      197.03515      1102.0554    
     39300  -188781.48      1098.3488     -187683.13      194.76237      197.02465      1102.5162    
     39400  -188720.54      1093.904      -187626.64      194.74971      197.01448      1102.9769    
     39500  -188665.16      1088.1769     -187576.98      194.7368       197.00168      1103.4376    
     39600  -188608.69      1089.1701     -187519.52      194.72549      196.98761      1103.8983    
     39700  -188539.86      1085.4204     -187454.44      194.71623      196.97354      1104.3591    
     39800  -188477.69      1094.6814     -187383.01      194.70318      196.95777      1104.8198    
     39900  -188419.21      1097.5278     -187321.68      194.68988      196.94288      1105.2805    
     40000  -188355.85      1090.3102     -187265.54      194.67758      196.92891      1105.7412    
     40100  -188293.25      1083.5141     -187209.74      194.663        196.91401      1106.202     
     40200  -188240.3       1094.1754     -187146.13      194.65045      196.90071      1106.6627    
     40300  -188160.24      1087.3281     -187072.92      194.63939      196.88811      1107.1234    
     40400  -188110.19      1101.8497     -187008.34      194.62497      196.87366      1107.5841    
     40500  -188049.45      1095.2813     -186954.17      194.61262      196.86146      1108.0449    
     40600  -187984.21      1087.0234     -186897.19      194.59932      196.85077      1108.5056    
     40700  -187926.57      1090.2117     -186836.35      194.58174      196.83984      1108.9663    
     40800  -187860.59      1088.0309     -186772.56      194.56573      196.83123      1109.427     
     40900  -187795.45      1091.688      -186703.76      194.54937      196.82325      1109.8878    
     41000  -187732.98      1099.4611     -186633.52      194.53351      196.81502      1110.3485    
     41100  -187668.91      1093.0773     -186575.83      194.52012      196.80686      1110.8092    
     41200  -187615.58      1087.0119     -186528.56      194.50547      196.7974       1111.27      
     41300  -187562.05      1093.897      -186468.16      194.48959      196.78756      1111.7307    
     41400  -187483.67      1081.0607     -186402.61      194.47326      196.77734      1112.1914    
     41500  -187428.97      1097.7024     -186331.27      194.45668      196.76627      1112.6521    
     41600  -187356.82      1092.3485     -186264.48      194.44168      196.75553      1113.1129    
     41700  -187304.37      1091.7851     -186212.59      194.42637      196.74374      1113.5736    
     41800  -187239.95      1077.6181     -186162.34      194.41322      196.7316       1114.0343    
     41900  -187186.03      1088.3343     -186097.69      194.40286      196.72008      1114.495     
     42000  -187107.92      1081.7617     -186026.16      194.38915      196.70733      1114.9558    
     42100  -187055.37      1095.9629     -185959.41      194.37549      196.69553      1115.4165    
     42200  -186989.59      1089.4935     -185900.09      194.36233      196.68564      1115.8772    
     42300  -186933.95      1080.4282     -185853.52      194.34542      196.67504      1116.3379    
     42400  -186875.95      1081.7481     -185794.2       194.3301       196.66522      1116.7987    
     42500  -186809.14      1085.6275     -185723.51      194.31723      196.65589      1117.2594    
     42600  -186741.99      1087.5315     -185654.45      194.30283      196.64357      1117.7201    
     42700  -186682.11      1092.1887     -185589.92      194.29069      196.63075      1118.1808    
     42800  -186609.23      1082.5457     -185526.68      194.2805       196.6181       1118.6416    
     42900  -186557.69      1089.8768     -185467.81      194.26892      196.60476      1119.1023    
     43000  -186498.37      1084.8188     -185413.55      194.25656      196.59201      1119.563     
     43100  -186431.45      1082.1008     -185349.35      194.24421      196.5801       1120.0237    
     43200  -186371.66      1095.7409     -185275.92      194.22952      196.56748      1120.4845    
     43300  -186306.23      1095.923      -185210.31      194.21432      196.55495      1120.9452    
     43400  -186242.87      1093.2915     -185149.58      194.20093      196.54346      1121.4059    
     43500  -186181.84      1082.3508     -185099.49      194.18831      196.53163      1121.8666    
     43600  -186121.29      1077.1693     -185044.12      194.17521      196.51993      1122.3274    
     43700  -186058.66      1086.5937     -184972.07      194.16213      196.50918      1122.7881    
     43800  -185994.35      1093.18       -184901.17      194.14886      196.49937      1123.2488    
     43900  -185932.55      1097.4163     -184835.13      194.13404      196.4905       1123.7095    
     44000  -185865.9       1093.4864     -184772.41      194.11659      196.4825       1124.1703    
     44100  -185803.16      1085.1269     -184718.04      194.09861      196.47499      1124.631     
     44200  -185751         1087.1268     -184663.87      194.08205      196.46717      1125.0917    
     44300  -185678.41      1084.8232     -184593.59      194.067        196.45827      1125.5524    
     44400  -185613.81      1092.0803     -184521.73      194.05335      196.44906      1126.0132    
     44500  -185551.25      1095.2186     -184456.03      194.03954      196.43954      1126.4739    
     44600  -185482.06      1089.374      -184392.69      194.02444      196.42938      1126.9346    
     44700  -185416.37      1081.373      -184334.99      194.00985      196.41897      1127.3953    
     44800  -185364.36      1082.8467     -184281.51      193.99464      196.40694      1127.8561    
     44900  -185304.61      1087.4533     -184217.15      193.98018      196.39388      1128.3168    
     45000  -185230.93      1092.6307     -184138.3       193.96732      196.3809       1128.7775    
     45100  -185163.87      1090.6361     -184073.23      193.95492      196.36764      1129.2382    
     45200  -185101.79      1085.1582     -184016.64      193.94245      196.3543       1129.699     
     45300  -185047.58      1088.6809     -183958.9       193.93092      196.34116      1130.1597    
     45400  -184984.8       1089.5673     -183895.23      193.91839      196.32719      1130.6204    
     45500  -184908.79      1091.0575     -183817.73      193.90652      196.31404      1131.0811    
     45600  -184849.66      1098.7836     -183750.88      193.89465      196.30184      1131.5419    
     45700  -184782.21      1084.5252     -183697.68      193.88168      196.28999      1132.0026    
     45800  -184728.73      1089.5175     -183639.22      193.86823      196.27847      1132.4633    
     45900  -184663.21      1086.2839     -183576.93      193.85309      196.26712      1132.924     
     46000  -184602.8       1091.7021     -183511.1       193.83777      196.2562       1133.3848    
     46100  -184529.95      1091.4833     -183438.47      193.82448      196.24704      1133.8455    
     46200  -184469.06      1100.197      -183368.86      193.80958      196.23711      1134.3062    
     46300  -184408.28      1094.7119     -183313.56      193.79514      196.22747      1134.767     
     46400  -184349.9       1090.9672     -183258.93      193.78151      196.21876      1135.2277    
     46500  -184286.84      1092.5554     -183194.29      193.7644       196.20812      1135.6884    
     46600  -184217.1       1090.9607     -183126.14      193.74881      196.19799      1136.1491    
     46700  -184157.34      1099.6299     -183057.71      193.73507      196.18865      1136.6099    
     46800  -184083.02      1091.5633     -182991.46      193.71821      196.17691      1137.0706    
     46900  -184026.4       1089.7006     -182936.69      193.70467      196.16612      1137.5313    
     47000  -183971.19      1090.8593     -182880.33      193.69291      196.15638      1137.992     
     47100  -183902.61      1087.0193     -182815.59      193.67667      196.14445      1138.4528    
     47200  -183835.09      1094.2886     -182740.8       193.66388      196.13418      1138.9135    
     47300  -183769.33      1101.1255     -182668.21      193.65112      196.12417      1139.3742    
     47400  -183706.43      1098.0272     -182608.41      193.6327       196.112        1139.8349    
     47500  -183637.43      1088.4952     -182548.94      193.61899      196.10142      1140.2957    
     47600  -183575.89      1086.9565     -182488.94      193.60802      196.09104      1140.7564    
     47700  -183518.18      1090.3845     -182427.8       193.59162      196.07747      1141.2171    
     47800  -183456.79      1090.729      -182366.06      193.57851      196.06603      1141.6778    
     47900  -183400.53      1097.9255     -182302.61      193.56553      196.05402      1142.1386    
     48000  -183321.58      1090.6061     -182230.98      193.54872      196.03986      1142.5993    
     48100  -183252.05      1094.9439     -182157.11      193.53617      196.02883      1143.06      
     48200  -183189.16      1095.5166     -182093.64      193.52385      196.01766      1143.5207    
     48300  -183130.05      1088.2428     -182041.81      193.50813      196.00499      1143.9815    
     48400  -183064.29      1085.4289     -181978.87      193.49409      195.99444      1144.4422    
     48500  -183008.43      1097.8911     -181910.53      193.47938      195.98387      1144.9029    
     48600  -182938.62      1093.3694     -181845.25      193.46301      195.97168      1145.3636    
     48700  -182872.19      1088.5346     -181783.65      193.44862      195.96023      1145.8244    
     48800  -182814.94      1088.004      -181726.93      193.43517      195.94902      1146.2851    
     48900  -182749.66      1085.7368     -181663.93      193.42198      195.93763      1146.7458    
     49000  -182677.49      1088.9574     -181588.53      193.40941      195.9269       1147.2065    
     49100  -182611.49      1098.7911     -181512.7       193.3945       195.91608      1147.6673    
     49200  -182545.84      1094.6005     -181451.24      193.37778      195.90546      1148.128     
     49300  -182481.81      1089.0081     -181392.81      193.36289      195.89619      1148.5887    
     49400  -182422.7       1091.8224     -181330.88      193.34664      195.88673      1149.0494    
     49500  -182362.48      1094.41       -181268.07      193.33036      195.87718      1149.5102    
     49600  -182291.59      1089.2658     -181202.33      193.31722      195.86822      1149.9709    
     49700  -182225.6       1092.1091     -181133.49      193.30237      195.85757      1150.4316    
     49800  -182159.36      1095.9316     -181063.43      193.28718      195.8459       1150.8923    
     49900  -182091.83      1090.0572     -181001.77      193.27433      195.83488      1151.3531    
     50000  -182034.67      1088.2306     -180946.44      193.25925      195.82198      1151.8138    
     50100  -181970.39      1085.1212     -180885.27      193.24397      195.80933      1152.2745    
     50200  -181913.26      1094.8854     -180818.37      193.23119      195.79792      1152.7352    
     50300  -181833.18      1091.0014     -180742.18      193.21661      195.78558      1153.196     
     50400  -181768.89      1102.5948     -180666.3       193.20363      195.77477      1153.6567    
     50500  -181701.26      1092.2381     -180609.02      193.19121      195.76501      1154.1174    
     50600  -181636.76      1086.4786     -180550.28      193.17434      195.75287      1154.5781    
     50700  -181581.9       1091.2432     -180490.66      193.16028      195.742        1155.0389    
     50800  -181519.34      1089.7647     -180429.58      193.1478       195.73178      1155.4996    
     50900  -181462.32      1095.8787     -180366.44      193.13141      195.71983      1155.9603    
     51000  -181385.74      1088.6165     -180297.12      193.1178       195.71055      1156.4211    
     51100  -181314.55      1096.018      -180218.53      193.10491      195.70271      1156.8818    
     51200  -181248.37      1095.2863     -180153.09      193.08694      195.69332      1157.3425    
     51300  -181187.57      1089.5602     -180098.01      193.0714       195.68536      1157.8032    
     51400  -181129.75      1095.4935     -180034.25      193.05784      195.67809      1158.264     
     51500  -181065.08      1096.4886     -179968.59      193.04014      195.66859      1158.7247    
     51600  -180993.85      1088.2706     -179905.58      193.02365      195.65995      1159.1854    
     51700  -180931.44      1084.982      -179846.46      193.00961      195.65173      1159.6461    
     51800  -180878.05      1092.2762     -179785.78      192.99524      195.6418       1160.1069    
     51900  -180806.6       1092.9807     -179713.62      192.98251      195.63053      1160.5676    
     52000  -180729.58      1096.8403     -179632.74      192.97062      195.61857      1161.0283    
     52100  -180662.7       1096.7184     -179565.98      192.95646      195.60449      1161.489     
     52200  -180600.05      1092.2062     -179507.84      192.94236      195.58952      1161.9498    
     52300  -180535.45      1089.8943     -179445.56      192.93043      195.5755       1162.4105    
     52400  -180471.95      1089.3896     -179382.56      192.91835      195.56155      1162.8712    
     52500  -180403.06      1086.8211     -179316.24      192.90574      195.54849      1163.3319    
     52600  -180341.54      1088.2413     -179253.3       192.89297      195.53761      1163.7927    
     52700  -180279.04      1080.2707     -179198.77      192.87866      195.52696      1164.2534    
     52800  -180214.79      1085.4149     -179129.38      192.86342      195.51561      1164.7141    
     52900  -180146.24      1094.3743     -179051.86      192.84974      195.50532      1165.1748    
     53000  -180073.54      1092.7023     -178980.83      192.83453      195.49525      1165.6356    
     53100  -180009.55      1093.4419     -178916.1       192.81863      195.48479      1166.0963    
     53200  -179948.67      1097.3547     -178851.32      192.80432      195.47492      1166.557     
     53300  -179881.02      1092.1384     -178788.88      192.79038      195.4648       1167.0177    
     53400  -179816.7       1089.97       -178726.73      192.77611      195.4541       1167.4785    
     53500  -179750.05      1088.0796     -178661.97      192.76307      195.44353      1167.9392    
     53600  -179686.03      1090.871      -178595.16      192.74866      195.43203      1168.3999    
     53700  -179624.75      1095.9057     -178528.85      192.73392      195.42094      1168.8606    
     53800  -179563.21      1087.0177     -178476.19      192.7208       195.41069      1169.3214    
     53900  -179492.29      1080.2164     -178412.07      192.70697      195.39964      1169.7821    
     54000  -179423.77      1089.3214     -178334.44      192.69341      195.38809      1170.2428    
     54100  -179351.39      1093.529      -178257.86      192.68013      195.37639      1170.7035    
     54200  -179281.83      1089.634      -178192.2       192.66583      195.36371      1171.1643    
     54300  -179226.58      1090.5844     -178135.99      192.65105      195.35052      1171.625     
     54400  -179156.66      1087.3569     -178069.3       192.63899      195.33848      1172.0857    
     54500  -179094.3       1094.4781     -177999.83      192.62752      195.32716      1172.5464    
     54600  -179017.35      1082.569      -177934.78      192.61265      195.31547      1173.0072    
     54700  -178958.51      1080.9685     -177877.54      192.59736      195.30544      1173.4679    
     54800  -178903.77      1092.385      -177811.38      192.58306      195.29565      1173.9286    
     54900  -178828.48      1090.607      -177737.88      192.56765      195.28408      1174.3893    
     55000  -178758.32      1098.2248     -177660.1       192.55532      195.27336      1174.8501    
     55100  -178689.37      1113.7613     -177575.61      192.54381      195.26165      1175.3108    
     55200  -178612.34      1096.0319     -177516.3       192.52932      195.24789      1175.7715    
     55300  -178552.25      1095.3851     -177456.87      192.51611      195.23528      1176.2322    
     55400  -178493.71      1095.1052     -177398.61      192.50134      195.22243      1176.693     
     55500  -178435.3       1096.7796     -177338.52      192.48544      195.20888      1177.1537    
     55600  -178361.38      1087.1104     -177274.27      192.47254      195.19735      1177.6144    
     55700  -178295.18      1088.4833     -177206.7       192.45858      195.18518      1178.0752    
     55800  -178225.79      1084.5055     -177141.29      192.44466      195.17326      1178.5359    
     55900  -178170.97      1089.3414     -177081.63      192.43238      195.16303      1178.9966    
     56000  -178100.14      1086.8596     -177013.28      192.41677      195.15216      1179.4573    
     56100  -178028.42      1090.9771     -176937.44      192.40043      195.14149      1179.9181    
     56200  -177950.07      1096.7351     -176853.34      192.38409      195.13092      1180.3788    
     56300  -177880.56      1103.403      -176777.15      192.36766      195.12018      1180.8395    
     56400  -177822.99      1102.1254     -176720.87      192.35377      195.10977      1181.3002    
     56500  -177760.4       1099.687      -176660.71      192.34054      195.09834      1181.761     
     56600  -177699.29      1097.6974     -176601.59      192.32606      195.08579      1182.2217    
     56700  -177630.79      1091.8715     -176538.92      192.31324      195.07414      1182.6824    
     56800  -177560.73      1086.2663     -176474.46      192.29873      195.06149      1183.1431    
     56900  -177495.75      1089.1008     -176406.65      192.28317      195.04832      1183.6039    
     57000  -177428.71      1089.2973     -176339.41      192.26954      195.03735      1184.0646    
     57100  -177360.85      1083.0808     -176277.77      192.25244      195.0257       1184.5253    
     57200  -177294.01      1082.9642     -176211.05      192.23554      195.01435      1184.986     
     57300  -177220.17      1085.9899     -176134.18      192.22127      195.00313      1185.4468    
     57400  -177142.64      1096.3961     -176046.25      192.2057       194.99041      1185.9075    
     57500  -177080.22      1104.1657     -175976.05      192.19186      194.97818      1186.3682    
     57600  -177014.06      1100.0807     -175913.98      192.17841      194.96624      1186.8289    
     57700  -176946.69      1092.7029     -175853.99      192.16283      194.95368      1187.2897    
     57800  -176884.08      1091.2857     -175792.79      192.14821      194.9419       1187.7504    
     57900  -176820.91      1091.3141     -175729.59      192.13442      194.93041      1188.2111    
     58000  -176755.34      1091.9668     -175663.37      192.11762      194.91769      1188.6718    
     58100  -176685.07      1090.6325     -175594.44      192.10232      194.9065       1189.1326    
     58200  -176617.63      1089.1821     -175528.45      192.08781      194.89574      1189.5933    
     58300  -176547.73      1082.8453     -175464.89      192.07193      194.8839       1190.054     
     58400  -176487.92      1089.8865     -175398.03      192.05835      194.87271      1190.5147    
     58500  -176406.86      1082.7971     -175324.06      192.04411      194.86132      1190.9755    
     58600  -176343.71      1095.8037     -175247.91      192.02839      194.84904      1191.4362    
     58700  -176267.78      1090.3607     -175177.42      192.01435      194.83746      1191.8969    
     58800  -176199.85      1084.6805     -175115.17      191.99901      194.82593      1192.3576    
     58900  -176138.28      1089.3794     -175048.9       191.98309      194.81432      1192.8184    
     59000  -176074.01      1095.5276     -174978.49      191.96915      194.80322      1193.2791    
     59100  -175999.99      1088.5201     -174911.47      191.95569      194.7915       1193.7398    
     59200  -175934.59      1090.2619     -174844.33      191.94168      194.77853      1194.2005    
     59300  -175863.58      1093.1398     -174770.44      191.92921      194.76573      1194.6613    
     59400  -175787.4       1091.2997     -174696.1       191.91626      194.75275      1195.122     
     59500  -175727.37      1100.0405     -174627.33      191.90069      194.73911      1195.5827    
     59600  -175658.23      1099.0861     -174559.14      191.88497      194.7257       1196.0434    
     59700  -175578.85      1089.7389     -174489.11      191.87044      194.71336      1196.5042    
     59800  -175514.28      1094.9988     -174419.28      191.85475      194.70031      1196.9649    
     59900  -175444.39      1094.081      -174350.31      191.84156      194.68704      1197.4256    
     60000  -175368         1088.6833     -174279.32      191.83174      194.67484      1197.8863    
     60100  -175304.14      1095.2166     -174208.92      191.81814      194.66168      1198.3471    
     60200  -175234.74      1096.3619     -174138.38      191.8032       194.64954      1198.8078    
     60300  -175168.42      1098.1662     -174070.25      191.78892      194.63888      1199.2685    
     60400  -175092.86      1092.1163     -174000.75      191.76987      194.62672      1199.7293    
     60500  -175024.31      1095.1229     -173929.19      191.75216      194.61587      1200.19      
     60600  -174946.51      1087.6187     -173858.9       191.73702      194.60581      1200.6507    
     60700  -174884.06      1096.6055     -173787.45      191.71971      194.59391      1201.1114    
     60800  -174813.78      1099.2074     -173714.57      191.70417      194.5826       1201.5722    
     60900  -174745.15      1101.1557     -173644         191.69104      194.57184      1202.0329    
     61000  -174666.14      1092.6491     -173573.49      191.67631      194.56022      1202.4936    
     61100  -174595.64      1094.0685     -173501.57      191.66104      194.54858      1202.9543    
     61200  -174529.7       1098.6135     -173431.09      191.64543      194.53682      1203.4151    
     61300  -174455.99      1095.6112     -173360.38      191.62822      194.52402      1203.8758    
     61400  -174377.01      1088.6799     -173288.33      191.61268      194.51132      1204.3365    
     61500  -174314.81      1098.0326     -173216.78      191.59774      194.498        1204.7972    
     61600  -174236.96      1091.7173     -173145.25      191.58324      194.48493      1205.258     
     61700  -174168.37      1095.6347     -173072.74      191.56808      194.47175      1205.7187    
     61800  -174092.84      1092.5323     -173000.31      191.5534       194.45864      1206.1794    
     61900  -174021.15      1092.9342     -172928.21      191.53896      194.44578      1206.6401    
     62000  -173951.58      1096.5441     -172855.03      191.52393      194.43223      1207.1009    
     62100  -173877.8       1096.5458     -172781.25      191.51011      194.41974      1207.5616    
     62200  -173804.48      1098.0449     -172706.43      191.49539      194.40692      1208.0223    
     62300  -173730.83      1097.4279     -172633.41      191.47869      194.39404      1208.483     
     62400  -173654.2       1096.0668     -172558.13      191.46203      194.38216      1208.9438    
     62500  -173585.95      1100.4837     -172485.47      191.44567      194.37071      1209.4045    
     62600  -173510.13      1099.0234     -172411.11      191.42903      194.35838      1209.8652    
     62700  -173441.34      1103.3334     -172338.01      191.41536      194.34675      1210.3259    
     62800  -173354.3       1089.4745     -172264.82      191.39993      194.33377      1210.7867    
     62900  -173286.56      1095.2122     -172191.35      191.38218      194.32066      1211.2474    
     63000  -173213.37      1095.9981     -172117.37      191.36602      194.30966      1211.7081    
     63100  -173138.53      1095.6526     -172042.88      191.34787      194.29809      1212.1688    
     63200  -173064.68      1099.257      -171965.42      191.33076      194.28721      1212.6296    
     63300  -172982.69      1093.7146     -171888.97      191.31402      194.27585      1213.0903    
     63400  -172911.99      1099.4283     -171812.56      191.29662      194.26421      1213.551     
     63500  -172831.15      1094.4498     -171736.7       191.28026      194.25294      1214.0117    
     63600  -172756.73      1096.7685     -171659.96      191.26363      194.24069      1214.4725    
     63700  -172681.48      1098.0537     -171583.43      191.24761      194.22853      1214.9332    
     63800  -172606.47      1100.082      -171506.39      191.23033      194.2167       1215.3939    
     63900  -172527.24      1097.8818     -171429.36      191.21294      194.20509      1215.8546    
     64000  -172449.65      1096.5951     -171353.05      191.19738      194.19384      1216.3154    
     64100  -172371.52      1095.5542     -171275.96      191.18128      194.18184      1216.7761    
     64200  -172298.46      1099.4027     -171199.05      191.16516      194.16902      1217.2368    
     64300  -172214.77      1093.0113     -171121.76      191.14911      194.15565      1217.6975    
     64400  -172138.17      1095.2135     -171042.96      191.13215      194.14128      1218.1583    
     64500  -172063.68      1099.7628     -170963.91      191.1164       194.12744      1218.619     
     64600  -171986.82      1102.295      -170884.52      191.0993       194.11263      1219.0797    
     64700  -171896.96      1092.7661     -170804.2       191.0844       194.09884      1219.5404    
     64800  -171826.33      1101.8702     -170724.46      191.0705       194.08472      1220.0012    
     64900  -171744.78      1099.5197     -170645.26      191.05523      194.06922      1220.4619    
     65000  -171658.34      1092.469      -170565.87      191.04024      194.05449      1220.9226    
     65100  -171580.41      1095.5811     -170484.82      191.02492      194.04036      1221.3833    
     65200  -171506.93      1101.1583     -170405.77      191.0091       194.02654      1221.8441    
     65300  -171426.95      1101.9113     -170325.04      190.99292      194.01312      1222.3048    
     65400  -171336.6       1091.8316     -170244.77      190.97652      194.00077      1222.7655    
     65500  -171260.27      1094.7884     -170165.48      190.95719      193.98776      1223.2263    
     65600  -171179.1       1096.8374     -170082.26      190.93947      193.97608      1223.687     
     65700  -171101.53      1102.2024     -169999.33      190.92324      193.96501      1224.1477    
     65800  -171000.72      1084.011      -169916.71      190.90532      193.95349      1224.6084    
     65900  -170926.49      1092.9048     -169833.59      190.88798      193.94218      1225.0692    
     66000  -170845.36      1093.5523     -169751.81      190.87026      193.93075      1225.5299    
     66100  -170770.02      1101.4956     -169668.52      190.8518       193.91864      1225.9906    
     66200  -170683.56      1099.2456     -169584.32      190.83503      193.90756      1226.4513    
     66300  -170597.6       1097.5395     -169500.06      190.81707      193.89609      1226.9121    
     66400  -170507.6       1091.8965     -169415.71      190.79893      193.88493      1227.3728    
     66500  -170430.34      1099.9194     -169330.42      190.78012      193.87348      1227.8335    
     66600  -170342.58      1097.3085     -169245.28      190.7617       193.86148      1228.2942    
     66700  -170251.26      1092.2361     -169159.02      190.74432      193.84897      1228.755     
     66800  -170161.94      1090.0392     -169071.9       190.7269       193.83549      1229.2157    
     66900  -170087.81      1103.2231     -168984.59      190.71124      193.82218      1229.6764    
     67000  -169993.79      1097.1103     -168896.68      190.69626      193.80854      1230.1371    
     67100  -169910         1101.0171     -168808.99      190.68071      193.79513      1230.5979    
     67200  -169822.41      1100.3121     -168722.1       190.66366      193.78259      1231.0586    
     67300  -169738.64      1104.4933     -168634.14      190.64422      193.77004      1231.5193    
     67400  -169648.45      1102.0931     -168546.36      190.6256       193.75821      1231.98      
     67500  -169553.84      1094.3975     -168459.44      190.60725      193.74569      1232.4408    
     67600  -169463.81      1095.0012     -168368.81      190.5909       193.73306      1232.9015    
     67700  -169382.9       1101.431      -168281.47      190.57388      193.72025      1233.3622    
     67800  -169291.18      1099.2642     -168191.91      190.55653      193.7081       1233.8229    
     67900  -169200.89      1100.6627     -168100.23      190.53982      193.69694      1234.2837    
     68000  -169111.96      1103.4968     -168008.46      190.52091      193.68457      1234.7444    
     68100  -169016.32      1100.1543     -167916.16      190.50401      193.67269      1235.2051    
     68200  -168928.52      1103.6389     -167824.88      190.48678      193.66075      1235.6658    
     68300  -168838.98      1102.9429     -167736.04      190.46714      193.64837      1236.1266    
     68400  -168748.59      1103.4755     -167645.11      190.44988      193.63755      1236.5873    
     68500  -168647.74      1095.8147     -167551.93      190.43052      193.62531      1237.048     
     68600  -168561.35      1102.7743     -167458.58      190.41181      193.61269      1237.5087    
     68700  -168454.38      1087.9661     -167366.41      190.39672      193.60171      1237.9695    
     68800  -168366.76      1096.1578     -167270.61      190.37749      193.58861      1238.4302    
     68900  -168277.22      1103.0363     -167174.18      190.36064      193.5773       1238.8909    
     69000  -168177.71      1098.4775     -167079.24      190.34421      193.56632      1239.3516    
     69100  -168078.6       1095.5068     -166983.09      190.32412      193.55264      1239.8124    
     69200  -167992.9       1103.8847     -166889.01      190.30726      193.54026      1240.2731    
     69300  -167896.61      1102.3055     -166794.3       190.28913      193.52627      1240.7338    
     69400  -167798.43      1098.9849     -166699.45      190.27153      193.51198      1241.1945    
     69500  -167706.24      1102.5099     -166603.73      190.25643      193.49897      1241.6553    
     69600  -167605.06      1098.5142     -166506.55      190.24047      193.48517      1242.116     
     69700  -167512.15      1103.3328     -166408.81      190.22495      193.47152      1242.5767    
     69800  -167413.02      1103.3134     -166309.71      190.20841      193.45811      1243.0374    
     69900  -167318.16      1108.2128     -166209.95      190.18993      193.44413      1243.4982    
     70000  -167210.98      1102.9302     -166108.05      190.17236      193.43069      1243.9589    
     70100  -167116.38      1105.2271     -166011.15      190.15534      193.41735      1244.4196    
     70200  -167023.22      1111.3082     -165911.92      190.1371       193.40305      1244.8804    
     70300  -166918.82      1108.1279     -165810.69      190.12002      193.3896       1245.3411    
     70400  -166822.49      1112.6967     -165709.79      190.10238      193.37714      1245.8018    
     70500  -166706.98      1096.8669     -165610.11      190.08265      193.36559      1246.2625    
     70600  -166625.4       1115.2791     -165510.12      190.06365      193.35573      1246.7233    
     70700  -166521.55      1112.9676     -165408.59      190.04476      193.34578      1247.184     
     70800  -166418.32      1113.0906     -165305.23      190.02531      193.33445      1247.6447    
     70900  -166306.5       1106.2948     -165200.21      190.00773      193.32312      1248.1054    
     71000  -166207.71      1111.4008     -165096.31      189.98934      193.31111      1248.5662    
     71100  -166106.23      1113.6141     -164992.61      189.96993      193.29851      1249.0269    
     71200  -166008.88      1119.7072     -164889.18      189.95332      193.28694      1249.4876    
     71300  -165904.15      1120.166      -164783.99      189.93489      193.27381      1249.9483    
     71400  -165793.6       1116.6281     -164676.97      189.9161       193.26011      1250.4091    
     71500  -165693.78      1119.2773     -164574.51      189.89867      193.24774      1250.8698    
     71600  -165588.98      1122.4302     -164466.55      189.87862      193.2341       1251.3305    
     71700  -165480.71      1118.2244     -164362.48      189.86011      193.22092      1251.7912    
     71800  -165372.23      1119.1065     -164253.13      189.84364      193.20841      1252.252     
     71900  -165265.1       1120.044      -164145.06      189.82591      193.19478      1252.7127    
     72000  -165165.93      1129.9586     -164035.97      189.80981      193.18197      1253.1734    
     72100  -165054.47      1126.3187     -163928.15      189.7926       193.16849      1253.6341    
     72200  -164943.01      1125.6743     -163817.33      189.77486      193.15507      1254.0949    
     72300  -164841.47      1134.6024     -163706.87      189.7574       193.14228      1254.5556    
     72400  -164728.63      1132.1981     -163596.43      189.73923      193.12889      1255.0163    
     72500  -164616.77      1131.7502     -163485.02      189.72154      193.11529      1255.477     
     72600  -164516.54      1146.3454     -163370.2       189.70338      193.10127      1255.9378    
     72700  -164407.67      1149.2553     -163258.41      189.68507      193.0878       1256.3985    
[...]
     81600  -199113.7       1227.9578     -197885.74      189.99479      193.08935      1297.4031    
     81700  -199419.12      1222.405      -198196.72      190.01084      193.1008       1297.8638    
     81800  -199722.11      1219.0747     -198503.03      190.02683      193.11182      1298.3245    
     81900  -200022.32      1216.2122     -198806.11      190.04362      193.12292      1298.7852    
     82000  -200319.94      1213.7594     -199106.18      190.05983      193.13299      1299.246     
     82100  -200614.68      1210.6879     -199403.99      190.07544      193.14275      1299.7067    
     82200  -200900.4       1202.3258     -199698.08      190.09113      193.15261      1300.1674    
     82300  -201161.44      1183.0136     -199978.42      190.10701      193.16272      1300.6281    
     82400  -201411.32      1170.0041     -200241.32      190.12269      193.17278      1301.0889    
     82500  -201650.85      1161.5998     -200489.25      190.13754      193.18246      1301.5496    
     82600  -201877.67      1153.0106     -200724.66      190.15263      193.1922       1302.0103    
     82700  -202094.56      1144.8289     -200949.73      190.16818      193.20192      1302.471     
     82800  -202296.16      1133.7364     -201162.43      190.18359      193.21128      1302.9318    
     82900  -202486.26      1125.7819     -201360.48      190.19839      193.22088      1303.3925    
     83000  -202665.56      1119.7254     -201545.84      190.21254      193.23083      1303.8532    
     83100  -202830.89      1112.0251     -201718.87      190.22689      193.241        1304.3139    
     83200  -202984.58      1106.6174     -201877.97      190.24141      193.25099      1304.7747    
     83300  -203129.31      1104.1181     -202025.19      190.25678      193.26075      1305.2354    
     83400  -203257.54      1096.1717     -202161.37      190.27205      193.27048      1305.6961    
     83500  -203374.44      1092.1535     -202282.29      190.28697      193.28026      1306.1568    
     83600  -203476.8       1088.6347     -202388.16      190.3024       193.29081      1306.6176    
     83700  -203566.06      1086.9546     -202479.1       190.31788      193.3018       1307.0783    
     83800  -203639.68      1083.7806     -202555.9       190.33357      193.31305      1307.539     
     83900  -203697.21      1080.1278     -202617.08      190.3486       193.32484      1307.9997    
     84000  -203732.46      1075.5321     -202656.93      190.36363      193.33725      1308.4605    
     84100  -203750.19      1079.7115     -202670.48      190.37884      193.35005      1308.9212    
     84200  -203755.43      1089.4518     -202665.98      190.39289      193.36239      1309.3819    
     84300  -203744.97      1087.1686     -202657.8       190.40637      193.37449      1309.8426    
     84400  -203722.67      1079.3675     -202643.3       190.41961      193.38594      1310.3034    
     84500  -203679.59      1070.5574     -202609.03      190.43357      193.39735      1310.7641    
     84600  -203614.61      1072.8051     -202541.8       190.44619      193.40807      1311.2248    
     84700  -203533.4       1084.5186     -202448.88      190.45572      193.41794      1311.6856    
     84800  -203439.69      1086.6327     -202353.05      190.4651       193.4294       1312.1463    
     84900  -203343.25      1081.7972     -202261.45      190.46965      193.44021      1312.607     
     85000  -203238.6       1073.9199     -202164.68      190.46795      193.45239      1313.0677    
     85100  -203160.52      1101.7524     -202058.77      190.46458      193.47276      1313.5285    
     85200  -203099.74      1116.8639     -201982.88      190.45178      193.49424      1313.9892    
     85300  -203071.84      1112.5381     -201959.3       190.43685      193.51407      1314.4499    
     85400  -203069.55      1094.1908     -201975.36      190.42654      193.5321       1314.9106    
     85500  -203066.93      1069.5274     -201997.4       190.4149       193.54364      1315.3714    
     85600  -203055.09      1072.5421     -201982.55      190.40354      193.55626      1315.8321    
     85700  -203041.57      1106.3981     -201935.17      190.39443      193.56835      1316.2928    
     85800  -203017.87      1104.655      -201913.22      190.39308      193.58151      1316.7535    
     85900  -202982.42      1071.8085     -201910.61      190.40078      193.59139      1317.2143    
     86000  -202964.95      1086.7161     -201878.24      190.4145       193.59172      1317.675     
     86100  -202950.79      1110.4717     -201840.32      190.43468      193.58797      1318.1357    
     86200  -202924.37      1092.7557     -201831.62      190.45546      193.58781      1318.5964    
     86300  -202896.5       1070.2374     -201826.26      190.4722       193.59186      1319.0572    
     86400  -202856.38      1072.3417     -201784.04      190.48713      193.59491      1319.5179    
     86500  -202817.69      1100.3548     -201717.34      190.50181      193.59999      1319.9786    
     86600  -202783.17      1108.7237     -201674.44      190.5203       193.60222      1320.4393    
     86700  -202762.97      1094.9776     -201667.99      190.54248      193.60361      1320.9001    
     86800  -202742.49      1071.8029     -201670.69      190.56517      193.6069       1321.3608    
     86900  -202729.37      1080.1132     -201649.26      190.58766      193.60797      1321.8215    
     87000  -202693.3       1085.81       -201607.49      190.60811      193.60592      1322.2822    
     87100  -202694.71      1124.2423     -201570.47      190.63221      193.6055       1322.743     
     87200  -202689.41      1101.2981     -201588.11      190.65791      193.60644      1323.2037    
     87300  -202670.38      1047.5376     -201622.84      190.68344      193.61182      1323.6644    
     87400  -202670.34      1073.6961     -201596.65      190.7029       193.6245       1324.1251    
     87500  -202665.52      1119.9424     -201545.58      190.72186      193.63674      1324.5859    
     87600  -202662.29      1113.813      -201548.48      190.73829      193.65421      1325.0466    
     87700  -202672.24      1077.1036     -201595.14      190.75989      193.67781      1325.5073    
     87800  -202671.96      1053.1991     -201618.76      190.78146      193.70049      1325.968     
     87900  -202665.6       1082.9406     -201582.66      190.79855      193.72493      1326.4288    
     88000  -202660.72      1125.9818     -201534.74      190.81866      193.75425      1326.8895    
     88100  -202659.61      1113.3604     -201546.25      190.83578      193.7812       1327.3502    
     88200  -202666.87      1075.8499     -201591.02      190.85607      193.8039       1327.8109    
     88300  -202671.79      1069.4808     -201602.31      190.88245      193.82543      1328.2717    
     88400  -202650.23      1081.9586     -201568.28      190.90505      193.84357      1328.7324    
     88500  -202634.78      1115.8555     -201518.92      190.92814      193.85738      1329.1931    
     88600  -202623.5       1121.4903     -201502.01      190.9489       193.87251      1329.6538    
     88700  -202626.77      1077.2989     -201549.47      190.97107      193.88689      1330.1146    
     88800  -202619.54      1048.7392     -201570.8       190.98663      193.9022       1330.5753    
     88900  -202609.45      1085.3974     -201524.05      191.00323      193.92535      1331.036     
     89000  -202591.68      1129.0557     -201462.63      191.01883      193.95558      1331.4967    
     89100  -202598.44      1125.0509     -201473.39      191.02938      193.98005      1331.9575    
     89200  -202591.84      1070.3538     -201521.49      191.04271      194.00185      1332.4182    
     89300  -202604.34      1058.5656     -201545.78      191.05486      194.02432      1332.8789    
     89400  -202591.58      1087.7861     -201503.8       191.06204      194.04888      1333.3397    
     89500  -202582.61      1118.0334     -201464.58      191.06975      194.07588      1333.8004    
     89600  -202579.39      1103.0055     -201476.38      191.07202      194.09979      1334.2611    
     89700  -202555.89      1101.5027     -201454.39      191.07574      194.12049      1334.7218    
     89800  -202577.25      1067.2575     -201509.99      191.08656      194.14425      1335.1826    
     89900  -202577.82      1049.2353     -201528.59      191.09337      194.1604       1335.6433    
     90000  -202554.16      1078.0203     -201476.14      191.10193      194.17697      1336.104     
     90100  -202533.33      1110.1667     -201423.16      191.10798      194.19399      1336.5647    
     90200  -202530.49      1117.787      -201412.7       191.11259      194.20514      1337.0255    
     90300  -202528.03      1086.2879     -201441.75      191.12447      194.22581      1337.4862    
     90400  -202540.36      1072.3597     -201468         191.13147      194.24684      1337.9469    
     90500  -202536.28      1079.4961     -201456.78      191.13654      194.2696       1338.4076    
     90600  -202519.68      1094.93       -201424.75      191.14011      194.2958       1338.8684    
     90700  -202507.76      1121.6921     -201386.06      191.1352       194.31888      1339.3291    
     90800  -202514.49      1108.3921     -201406.1       191.13074      194.34158      1339.7898    
     90900  -202539.31      1078.2988     -201461.02      191.13249      194.36424      1340.2505    
     91000  -202563.76      1069.3226     -201494.44      191.13578      194.3823       1340.7113    
     91100  -202546.14      1065.2773     -201480.86      191.13647      194.39682      1341.172     
     91200  -202536.33      1107.5051     -201428.83      191.13836      194.41706      1341.6327    
     91300  -202514.95      1112.55       -201402.4       191.14046      194.43711      1342.0934    
     91400  -202523.14      1097.6893     -201425.45      191.14494      194.45729      1342.5542    
     91500  -202528.33      1063.3584     -201464.97      191.15271      194.48078      1343.0149    
     91600  -202536.04      1070.8957     -201465.14      191.15689      194.50042      1343.4756    
     91700  -202514.99      1089.7727     -201425.22      191.16251      194.51835      1343.9363    
     91800  -202506.97      1116.9374     -201390.03      191.16776      194.53228      1344.3971    
     91900  -202502.15      1107.2658     -201394.88      191.17479      194.54447      1344.8578    
     92000  -202500.39      1075.6875     -201424.7       191.18442      194.55773      1345.3185    
     92100  -202517.99      1075.6564     -201442.33      191.18966      194.55827      1345.7792    
     92200  -202507.3       1081.2631     -201426.04      191.19483      194.55659      1346.24      
     92300  -202510.72      1118.1881     -201392.53      191.19678      194.55562      1346.7007    
     92400  -202502.13      1109.3112     -201392.82      191.19801      194.55447      1347.1614    
     92500  -202514.92      1091.3916     -201423.53      191.20288      194.55741      1347.6221    
     92600  -202514.71      1069.0469     -201445.66      191.2073       194.55943      1348.0829    
     92700  -202511.32      1076.6072     -201434.71      191.20949      194.56396      1348.5436    
     92800  -202505.59      1101.8411     -201403.75      191.21009      194.5749       1349.0043    
     92900  -202495.96      1110.4774     -201385.48      191.21142      194.59021      1349.465     
     93000  -202493.91      1098.0581     -201395.85      191.21531      194.6033       1349.9258    
     93100  -202503.87      1084.0471     -201419.83      191.21934      194.61677      1350.3865    
     93200  -202510.9       1073.514      -201437.39      191.21812      194.62507      1350.8472    
     93300  -202504.84      1085.7233     -201419.12      191.2218       194.63735      1351.3079    
     93400  -202487.97      1100.1272     -201387.84      191.22795      194.64925      1351.7687    
     93500  -202486.84      1107.0109     -201379.83      191.23197      194.65638      1352.2294    
     93600  -202488.7       1085.6843     -201403.02      191.24208      194.66994      1352.6901    
     93700  -202493.61      1069.3633     -201424.25      191.24702      194.68616      1353.1508    
     93800  -202507.77      1088.1119     -201419.66      191.25416      194.70302      1353.6116    
     93900  -202483.45      1091.827      -201391.62      191.26189      194.71622      1354.0723    
     94000  -202472.63      1100.0988     -201372.53      191.26814      194.72588      1354.533     
     94100  -202476.41      1100.4701     -201375.94      191.27588      194.73492      1354.9937    
     94200  -202486.84      1090.468      -201396.38      191.28228      194.74053      1355.4545    
     94300  -202479.72      1069.3485     -201410.37      191.28628      194.74384      1355.9152    
     94400  -202485.13      1087.6203     -201397.51      191.29412      194.7509       1356.3759    
     94500  -202454.87      1088.3884     -201366.48      191.30146      194.76167      1356.8367    
     94600  -202436.6       1098.8657     -201337.73      191.31108      194.7706       1357.2974    
     94700  -202425.18      1094.7754     -201330.41      191.31943      194.77891      1357.7581    
     94800  -202428.91      1087.8207     -201341.08      191.32798      194.78869      1358.2188    
     94900  -202438.39      1075.008      -201363.38      191.33406      194.79727      1358.6796    
     95000  -202442.01      1083.4417     -201358.56      191.34222      194.80714      1359.1403    
     95100  -202438.36      1099.2905     -201339.07      191.35122      194.81845      1359.601     
     95200  -202427.75      1097.9801     -201329.77      191.35915      194.8272       1360.0617    
     95300  -202412.67      1101.0023     -201311.66      191.3669       194.83089      1360.5225    
     95400  -202414.71      1076.6356     -201338.08      191.37666      194.83346      1360.9832    
     95500  -202439.19      1087.6421     -201351.55      191.38801      194.83122      1361.4439    
     95600  -202430.26      1080.6232     -201349.63      191.39925      194.82396      1361.9046    
     95700  -202430.22      1095.7136     -201334.51      191.40532      194.81527      1362.3654    
     95800  -202428.45      1098.7008     -201329.75      191.41401      194.80845      1362.8261    
     95900  -202433.91      1089.568      -201344.34      191.42029      194.79399      1363.2868    
     96000  -202435.66      1076.1762     -201359.48      191.42813      194.78094      1363.7475    
     96100  -202437.34      1084.2195     -201353.13      191.43778      194.76909      1364.2083    
     96200  -202429.71      1096.6558     -201333.05      191.44394      194.75231      1364.669     
     96300  -202424.3       1103.1911     -201321.11      191.45238      194.73335      1365.1297    
     96400  -202435.85      1099.6895     -201336.16      191.45998      194.71239      1365.5904    
     96500  -202436.35      1076.4819     -201359.86      191.4679       194.69281      1366.0512    
     96600  -202437.54      1078.4859     -201359.05      191.47942      194.67427      1366.5119    
     96700  -202437.25      1095.5893     -201341.66      191.48807      194.65175      1366.9726    
     96800  -202428.15      1097.0548     -201331.09      191.49737      194.63078      1367.4333    
     96900  -202429.12      1095.697      -201333.43      191.50549      194.60691      1367.8941    
     97000  -202425.68      1078.3522     -201347.33      191.51713      194.58287      1368.3548    
     97100  -202438.24      1084.6192     -201353.62      191.52605      194.55989      1368.8155    
     97200  -202440.11      1092.0526     -201348.06      191.53343      194.53963      1369.2762    
     97300  -202434.88      1091.6613     -201343.22      191.54426      194.52104      1369.737     
     97400  -202436.13      1093.0144     -201343.11      191.55364      194.5008       1370.1977    
     97500  -202430.41      1083.3507     -201347.06      191.56275      194.48275      1370.6584    
     97600  -202437.52      1089.2105     -201348.31      191.5733       194.46619      1371.1191    
     97700  -202437.88      1092.1803     -201345.7       191.58186      194.44742      1371.5799    
     97800  -202431.73      1087.7307     -201344         191.59238      194.43104      1372.0406    
     97900  -202437.88      1088.8924     -201348.99      191.60345      194.41455      1372.5013    
     98000  -202442.27      1091.1284     -201351.14      191.61503      194.39636      1372.962     
     98100  -202438.16      1090.763      -201347.39      191.63123      194.3799       1373.4228    
     98200  -202445.65      1112.9172     -201332.73      191.64406      194.3602       1373.8835    
     98300  -202436.03      1090.1958     -201345.84      191.65914      194.34642      1374.3442    
     98400  -202452.32      1087.1506     -201365.17      191.67653      194.34084      1374.8049    
     98500  -202459.73      1082.5707     -201377.16      191.68966      194.33398      1375.2657    
     98600  -202453.17      1084.6601     -201368.51      191.70423      194.32524      1375.7264    
     98700  -202438.92      1095.1583     -201343.76      191.72026      194.31547      1376.1871    
     98800  -202432.53      1100.3336     -201332.2       191.7392       194.30815      1376.6478    
     98900  -202439.06      1095.4873     -201343.58      191.76092      194.301        1377.1086    
     99000  -202441.51      1078.1301     -201363.38      191.77828      194.29049      1377.5693    
     99100  -202444.13      1073.3564     -201370.77      191.79776      194.28146      1378.03      
     99200  -202442.22      1087.6897     -201354.53      191.81957      194.27276      1378.4908    
     99300  -202432.6       1100.3586     -201332.24      191.84351      194.26475      1378.9515    
     99400  -202422.43      1094.4384     -201327.99      191.86371      194.25018      1379.4122    
     99500  -202428.97      1084.9854     -201343.99      191.88513      194.23629      1379.8729    
     99600  -202441.48      1081.7689     -201359.71      191.90859      194.22463      1380.3337    
     99700  -202448.91      1088.3544     -201360.55      191.93463      194.21659      1380.7944    
     99800  -202443.94      1089.3254     -201354.61      191.962        194.20793      1381.2551    
     99900  -202433.23      1087.8325     -201345.4       191.98647      194.19568      1381.7158    
    100000  -202431.92      1094.7062     -201337.22      192.01239      194.18262      1382.1766    
Loop time of 6189.24 on 12 procs for 100000 steps with 28120 atoms

Performance: 1.396 ns/day, 17.192 hours/ns, 16.157 timesteps/s, 454.337 katom-step/s
86.8% CPU use with 12 MPI tasks x 1 OpenMP threads

MPI task timing breakdown:
Section |  min time  |  avg time  |  max time  |%varavg| %total
---------------------------------------------------------------
Pair    | 2765       | 3591.2     | 4554.7     | 813.8 | 58.02
Neigh   | 20.755     | 28.652     | 37.142     |  98.9 |  0.46
Comm    | 152.06     | 1294.5     | 2389.4     |1619.3 | 20.92
Output  | 2.4742     | 2.6614     | 2.8022     |   6.5 |  0.04
Modify  | 961.16     | 1221.5     | 1687.1     | 650.2 | 19.74
Other   |            | 50.67      |            |       |  0.82

Nlocal:        2343.33 ave        5769 max         147 min
Histogram: 2 0 4 0 3 0 1 1 0 1
Nghost:        2390.83 ave        4853 max         319 min
Histogram: 2 0 0 3 2 0 4 0 0 1
Neighs:              0 ave           0 max           0 min
Histogram: 12 0 0 0 0 0 0 0 0 0

Total # of neighbors = 0
Ave neighs/atom = 0
Neighbor list builds = 980
Dangerous builds = 0
Total wall time: 1:43:11
