LAMMPS (2 Aug 2023 - Update 3)
OMP_NUM_THREADS environment is not set. Defaulting to 1 thread. (src/comm.cpp:98)
  using 1 OpenMP thread(s) per MPI task

# 1------general---------------
units                             metal      #单位为lammps 中的metel 类型
dimension                    3          #模拟的维度 三维
boundary                    p p p      #周期边界条件
atom_style                  atomic   #原子类型自动
atom_modify              map array sort 100 2.0
neighbor                    3.0 bin
neigh_modify            every 1 delay 0 check yes
#2 -----global variable-------定义全局变量，方便统一修改；
variable temperature equal 300
variable tstep equal 0.001
variable pressure equal 0
variable thermalstep equal 100
variable dumpstep equal 1000
variable relaxtime equal 0
variable totaltime equal 100000
variable deformrate equal 5e-3
#3 -------model------------
#box tilt large
read_data     1.lmp
Reading data file ...
  orthogonal box = (-100 -100 -2.331251) to (100 100 38.891558)
  3 by 4 by 1 MPI processor grid
  reading atoms ...
  920 atoms
  read_data CPU = 0.004 seconds
replicate 1 1 3
Replication is creating a 1x1x3 = 3 times larger system...
  orthogonal box = (-100 -100 -2.331251) to (100 100 121.33718)
  3 by 2 by 2 MPI processor grid
  2760 atoms
  replicate CPU = 0.001 seconds
write_data l.data
System init for write_data ...
WARNING: Communication cutoff is 0.0. No ghost atoms will be generated. Atoms may get lost. (src/comm_brick.cpp:210)

pair_style hybrid airebo 3.0 airebo 3.0  lj/cut 10
pair_coeff * * airebo 1 CH.airebo C NULL
Reading airebo potential file CH.airebo with DATE: 2011-10-25
pair_coeff * * airebo 2 CH.airebo NULL C
Reading airebo potential file CH.airebo with DATE: 2011-10-25
pair_coeff 1 2 lj/cut 0.00456 3.431

# 5------minimize -----------
min_style      sd
minimize       1.0e-4 1.0e-6 100 1000
Neighbor list info ...
  update: every = 1 steps, delay = 0 steps, check = yes
  max neighbors/atom: 2000, page size: 100000
  master list distance cutoff = 13.2
  ghost atom cutoff = 13.2
  binsize = 6.6, bins = 31 31 19
  5 neighbor lists, perpetual/occasional/extra = 5 0 0
  (1) pair airebo, perpetual, skip from (4)
      attributes: full, newton on, ghost
      pair build: skip/ghost
      stencil: none
      bin: none
  (2) pair airebo, perpetual, skip from (4)
      attributes: full, newton on, ghost
      pair build: skip/ghost
      stencil: none
      bin: none
  (3) pair lj/cut, perpetual, skip from (5)
      attributes: half, newton on, cut 13
      pair build: skip
      stencil: none
      bin: none
  (4) neighbor class addition, perpetual
      attributes: full, newton on, ghost
      pair build: full/bin/ghost
      stencil: full/ghost/bin/3d
      bin: standard
  (5) neighbor class addition, perpetual
      attributes: half, newton on, cut 13
      pair build: half/bin/atomonly/newton
      stencil: half/bin/3d
      bin: standard
Per MPI rank memory allocation (min/avg/max) = 8.274 | 8.992 | 10.43 Mbytes
   Step          Temp          E_pair         E_mol          TotEng         Press     
         0   0             -20011.171      0             -20011.171      322.36972    
         4   0             -20063.883      0             -20063.883      67.774962    
Loop time of 0.110842 on 12 procs for 4 steps with 2760 atoms

98.6% CPU use with 12 MPI tasks x 1 OpenMP threads

Minimization stats:
  Stopping criterion = energy tolerance
  Energy initial, next-to-last, final = 
     -20011.1714669827  -20062.6693289023  -20063.8826619563
  Force two-norm initial, final = 75.570964 11.506511
  Force max component initial, final = 3.4211508 0.48894053
  Final line search alpha, max atom move = 0.14095332 0.068917792
  Iterations, force evaluations = 4 8

MPI task timing breakdown:
Section |  min time  |  avg time  |  max time  |%varavg| %total
---------------------------------------------------------------
Pair    | 5.402e-06  | 0.035031   | 0.10993    |  26.5 | 31.60
Neigh   | 0          | 0          | 0          |   0.0 |  0.00
Comm    | 2.483e-06  | 0.0017851  | 0.016555   |  10.7 |  1.61
Output  | 0          | 0          | 0          |   0.0 |  0.00
Modify  | 0          | 0          | 0          |   0.0 |  0.00
Other   |            | 0.07403    |            |       | 66.78

Nlocal:            230 ave         716 max           0 min
Histogram: 8 0 0 0 0 0 0 0 0 4
Nghost:        421.333 ave        1290 max           0 min
Histogram: 8 0 0 0 0 0 0 0 0 4
Neighs:              0 ave           0 max           0 min
Histogram: 12 0 0 0 0 0 0 0 0 0

Total # of neighbors = 0
Ave neighs/atom = 0
Neighbor list builds = 0
Dangerous builds = 0
#6----define computes------
variable nums equal count(all) #计算原子数目
variable toval equal 13.369*13.369*lz #计算系统总体积，单层石墨烯厚度为0.335nm
variable vol equal ${toval} #体系的初始体积
variable vol equal 22103.2778683267 
variable vatom equal v_vol/v_nums #单个原子体积
compute 1 all stress/atom NULL #计算体系中单原子应力
compute xalls all reduce sum c_1[1]
variable xstress equal (c_xalls)/(v_toval*10000)
compute yalls all reduce sum c_1[2]
variable ystress equal (c_yalls)/(v_toval*10000)
compute zalls all reduce sum c_1[3]
variable zstress equal (c_zalls)/(v_toval*10000)
#7---------relaxation-------------------------
timestep ${tstep}
timestep 0.001
#------------5 温度初始化------------------------------
velocity all create 300 4928459 dist gaussian units box
#------------------------------------------------------
dump   1 all atom 100 all-cy.lammpstrj
#fix    1 all npt temp 300 300  0.1 aniso 0 0  drag 1  #三个方向独立控压
fix  s all npt temp ${temperature} ${temperature} 0.1 y ${pressure} ${pressure} 10 x ${pressure} ${pressure} 10
fix  s all npt temp 300 ${temperature} 0.1 y ${pressure} ${pressure} 10 x ${pressure} ${pressure} 10
fix  s all npt temp 300 300 0.1 y ${pressure} ${pressure} 10 x ${pressure} ${pressure} 10
fix  s all npt temp 300 300 0.1 y 0 ${pressure} 10 x ${pressure} ${pressure} 10
fix  s all npt temp 300 300 0.1 y 0 0 10 x ${pressure} ${pressure} 10
fix  s all npt temp 300 300 0.1 y 0 0 10 x 0 ${pressure} 10
fix  s all npt temp 300 300 0.1 y 0 0 10 x 0 0 10
thermo                1000
thermo_modify       lost ignore
compute  2 all pe/atom
compute  pe all reduce sum c_2
variable PE equal "c_pe"
fix    pe all print 100 "${PE} " file PE.txt screen no
thermo  ${thermalstep}
thermo  100
#thermo_style  custom step pe ke etotal lx ly lz
run   ${relaxtime}
run   0
Per MPI rank memory allocation (min/avg/max) = 8.899 | 9.617 | 11.05 Mbytes
   Step          Temp          E_pair         E_mol          TotEng         Press          Volume    
         4   300           -20063.883      0             -19956.894      90.876338      4946737.1    
Loop time of 1.95258e-05 on 12 procs for 0 steps with 2760 atoms

93.5% CPU use with 12 MPI tasks x 1 OpenMP threads

MPI task timing breakdown:
Section |  min time  |  avg time  |  max time  |%varavg| %total
---------------------------------------------------------------
Pair    | 0          | 0          | 0          |   0.0 |  0.00
Neigh   | 0          | 0          | 0          |   0.0 |  0.00
Comm    | 0          | 0          | 0          |   0.0 |  0.00
Output  | 0          | 0          | 0          |   0.0 |  0.00
Modify  | 0          | 0          | 0          |   0.0 |  0.00
Other   |            | 1.953e-05  |            |       |100.00

Nlocal:            230 ave         690 max           0 min
Histogram: 8 0 0 0 0 0 0 0 0 4
Nghost:        421.333 ave        1264 max           0 min
Histogram: 8 0 0 0 0 0 0 0 0 4
Neighs:              0 ave           0 max           0 min
Histogram: 12 0 0 0 0 0 0 0 0 0

Total # of neighbors = 0
Ave neighs/atom = 0
Neighbor list builds = 0
Dangerous builds = 0
#8 -------tension-----------------------------
unfix s
undump  1
unfix  pe
reset_timestep 0
fix avestress all ave/atom 1 ${dumpstep} ${dumpstep} c_1[1] c_1[2] c_1[3] c_1[4] c_1[5] c_1[6]
fix avestress all ave/atom 1 1000 ${dumpstep} c_1[1] c_1[2] c_1[3] c_1[4] c_1[5] c_1[6]
fix avestress all ave/atom 1 1000 1000 c_1[1] c_1[2] c_1[3] c_1[4] c_1[5] c_1[6]

#-----calculation of strain and Cumulative compression--------
variable                tmp equal "lz"
variable                L0 equal ${tmp}
variable                L0 equal 123.668427
variable                strain equal "(lz - v_L0)/v_L0"
variable                Cumulativels equal "(lz - v_L0)/10"
fix Step all print 100 "${strain} ${Cumulativels} ${zstress}" file grapoten.txt screen no

dump 2 all custom ${dumpstep} tension.xyz type x y z f_avestress[1] f_avestress[2] f_avestress[3] f_avestress[4] f_avestress[5] f_avestress[6]
dump 2 all custom 1000 tension.xyz type x y z f_avestress[1] f_avestress[2] f_avestress[3] f_avestress[4] f_avestress[5] f_avestress[6]

fix  1 all npt temp ${temperature} ${temperature} 0.1 y ${pressure} ${pressure} 10 x ${pressure} ${pressure} 10
fix  1 all npt temp 300 ${temperature} 0.1 y ${pressure} ${pressure} 10 x ${pressure} ${pressure} 10
fix  1 all npt temp 300 300 0.1 y ${pressure} ${pressure} 10 x ${pressure} ${pressure} 10
fix  1 all npt temp 300 300 0.1 y 0 ${pressure} 10 x ${pressure} ${pressure} 10
fix  1 all npt temp 300 300 0.1 y 0 0 10 x ${pressure} ${pressure} 10
fix  1 all npt temp 300 300 0.1 y 0 0 10 x 0 ${pressure} 10
fix  1 all npt temp 300 300 0.1 y 0 0 10 x 0 0 10

thermo_style custom step pe ke etotal lx ly lz
WARNING: New thermo_style command, previous thermo_modify settings will be lost (src/output.cpp:903)
fix   2 all deform 1 z erate ${deformrate} remap x units box
fix   2 all deform 1 z erate 0.005 remap x units box
fix   3 all ave/time 2 500 1000 v_xstress v_ystress v_zstress file pressure.out
run   ${totaltime}
run   100000
WARNING: Dump 2 includes no atom IDs and is not sorted by ID. This may complicate post-processing tasks or visualization (src/dump.cpp:221)
Per MPI rank memory allocation (min/avg/max) = 10.4 | 11.12 | 12.55 Mbytes
   Step         PotEng         KinEng         TotEng           Lx             Ly             Lz      
         0  -20063.883      106.98862     -19956.894      200            200            123.66843    
       100  -20001.007      53.89049      -19947.117      200.00354      200.00677      123.73026    
       200  -20004.602      71.463006     -19933.139      199.99887      200.00583      123.7921     
       300  -19991.587      75.164102     -19916.423      200.00052      200.01197      123.85393    
       400  -19982.143      83.660961     -19898.482      199.99776      200.01251      123.91576    
       500  -19975.234      94.869416     -19880.365      199.99784      200.01415      123.9776     
       600  -19968.781      104.88697     -19863.894      200.00032      200.01651      124.03943    
       700  -19963.257      112.15676     -19851.101      199.99682      200.01279      124.10127    
       800  -19957.464      112.55865     -19844.905      200.00129      200.01801      124.1631     
       900  -19962.648      114.41658     -19848.231      199.99515      200.01353      124.22493    
      1000  -19963.891      107.91495     -19855.976      199.99715      200.01906      124.28677    
      1100  -19964.771      104.29507     -19860.476      199.99039      200.01652      124.3486     
      1200  -19963.115      104.35307     -19858.761      199.99111      200.02061      124.41044    
      1300  -19958.372      105.65582     -19852.716      199.9863       200.01753      124.47227    
      1400  -19956.833      109.28125     -19847.552      199.98754      200.0192       124.53411    
      1500  -19956.997      109.8873      -19847.109      199.98238      200.01595      124.59594    
      1600  -19955.943      104.22215     -19851.721      199.98267      200.01875      124.65777    
      1700  -19960.616      104.83639     -19855.78       199.97527      200.01462      124.71961    
      1800  -19957.64       101.85508     -19855.785      199.97656      200.01906      124.78144    
      1900  -19958.173      106.62349     -19851.549      199.96763      200.01285      124.84328    
      2000  -19953.744      107.15783     -19846.587      199.9712       200.01769      124.90511    
      2100  -19953.765      108.96028     -19844.805      199.96165      200.00985      124.96695    
      2200  -19952.249      105.55264     -19846.696      199.96396      200.01402      125.02878    
      2300  -19956.503      106.48009     -19850.023      199.95428      200.00849      125.09061    
      2400  -19956.181      104.94717     -19851.233      199.95371      200.01132      125.15245    
      2500  -19956.339      107.80729     -19848.532      199.94618      200.00595      125.21428    
      2600  -19953.612      109.51428     -19844.098      199.94462      200.00613      125.27612    
      2700  -19951.616      110.11612     -19841.5        199.93861      200.00169      125.33795    
      2800  -19949.157      106.4513      -19842.706      199.93399      200.0012       125.39978    
      2900  -19952.185      106.55741     -19845.628      199.92738      199.99806      125.46162    
      3000  -19951.77       104.8737      -19846.896      199.92215      199.99656      125.52345    
      3100  -19950.402      105.92285     -19844.479      199.91614      199.99312      125.58529    
      3200  -19947.154      106.93405     -19840.22       199.91127      199.99014      125.64712    
      3300  -19944.67       107.19857     -19837.472      199.90566      199.986        125.70896    
      3400  -19946.182      108.32472     -19837.857      199.90032      199.98207      125.77079    
      3500  -19947.254      107.23218     -19840.022      199.89405      199.9787       125.83262    
      3600  -19946.714      105.78082     -19840.933      199.88623      199.97501      125.89446    
      3700  -19943.361      104.35144     -19839.009      199.87978      199.97316      125.95629    
      3800  -19940.53       105.66367     -19834.866      199.87071      199.9684       126.01813    
      3900  -19938.604      107.07546     -19831.528      199.86462      199.966        126.07996    
      4000  -19940.147      109.03217     -19831.114      199.85672      199.95967      126.1418     
      4100  -19938.546      105.47031     -19833.075      199.85171      199.95379      126.20363    
      4200  -19938.802      104.73621     -19834.066      199.84509      199.94705      126.26546    
      4300  -19938.833      106.48006     -19832.353      199.83654      199.94145      126.3273     
      4400  -19933.849      105.40516     -19828.443      199.82746      199.93856      126.38913    
      4500  -19932.491      107.66195     -19824.829      199.8159       199.93337      126.45097    
      4600  -19932.375      107.91915     -19824.456      199.80715      199.93039      126.5128     
      4700  -19935.168      108.83305     -19826.335      199.79599      199.92237      126.57464    
      4800  -19933.875      106.27909     -19827.596      199.78965      199.9169       126.63647    
      4900  -19931.419      105.29103     -19826.128      199.78066      199.90633      126.6983     
      5000  -19928.92       106.8356      -19822.084      199.77462      199.89965      126.76014    
      5100  -19927.401      109.14309     -19818.258      199.76255      199.89081      126.82197    
      5200  -19925.728      108.98356     -19816.745      199.75327      199.88662      126.88381    
      5300  -19924.791      106.92863     -19817.862      199.73892      199.87874      126.94564    
      5400  -19923.237      104.2608      -19818.976      199.72812      199.8751       127.00747    
      5500  -19923.757      105.61252     -19818.145      199.7136       199.86576      127.06931    
      5600  -19920.34       106.69198     -19813.648      199.70482      199.8593       127.13114    
      5700  -19919.632      110.38602     -19809.246      199.69304      199.84637      127.19298    
      5800  -19916.38       107.43355     -19808.947      199.68562      199.83717      127.25481    
      5900  -19916.896      107.30515     -19809.591      199.67228      199.82456      127.31665    
      6000  -19916.554      107.29165     -19809.262      199.66059      199.81781      127.37848    
      6100  -19915.18       106.92786     -19808.252      199.6431       199.80902      127.44031    
      6200  -19914.186      107.65478     -19806.532      199.6287       199.80344      127.50215    
      6300  -19909.863      107.05341     -19802.809      199.61296      199.79269      127.56398    
      6400  -19905.462      108.44087     -19797.021      199.60097      199.78269      127.62582    
      6500  -19904.414      106.80514     -19797.609      199.58718      199.76931      127.68765    
      6600  -19905.399      106.08547     -19799.313      199.57491      199.75754      127.74949    
      6700  -19905.983      107.16793     -19798.815      199.55979      199.74403      127.81132    
      6800  -19905.501      108.10528     -19797.396      199.54603      199.73256      127.87315    
      6900  -19903.949      110.18047     -19793.768      199.52938      199.71928      127.93499    
      7000  -19899.317      110.87613     -19788.441      199.51214      199.70917      127.99682    
      7100  -19896.975      108.96232     -19788.013      199.49323      199.69701      128.05866    
      7200  -19897.304      107.83594     -19789.468      199.47567      199.68541      128.12049    
      7300  -19893.439      105.0424      -19788.396      199.45577      199.67243      128.18232    
      7400  -19896.515      109.53912     -19786.975      199.43744      199.66074      128.24416    
      7500  -19892.479      107.61148     -19784.867      199.4189       199.64502      128.30599    
      7600  -19890.97       109.01324     -19781.957      199.40257      199.62953      128.36783    
      7700  -19886.25       107.85252     -19778.397      199.38532      199.6108       128.42966    
      7800  -19886.433      109.87104     -19776.562      199.36887      199.59392      128.4915     
      7900  -19887.029      109.22504     -19777.804      199.34719      199.57815      128.55333    
      8000  -19881.33       103.36533     -19777.965      199.32294      199.56606      128.61516    
      8100  -19882.28       107.34747     -19774.932      199.29811      199.55298      128.677      
      8200  -19876.436      106.78297     -19769.653      199.27456      199.5375       128.73883    
      8300  -19873.553      107.24962     -19766.304      199.25334      199.51917      128.80067    
      8400  -19875.219      109.94894     -19765.27       199.23288      199.49787      128.8625     
      8500  -19871.936      106.25182     -19765.684      199.21259      199.47668      128.92434    
      8600  -19871.821      106.52167     -19765.299      199.18931      199.45513      128.98617    
      8700  -19868.266      105.32848     -19762.938      199.16509      199.43663      129.048      
      8800  -19865.664      108.49108     -19757.173      199.1369       199.41789      129.10984    
      8900  -19858          104.98684     -19753.013      199.11101      199.39909      129.17167    
      9000  -19862.764      109.48625     -19753.278      199.08381      199.37718      129.23351    
      9100  -19859.641      106.24743     -19753.394      199.05639      199.35728      129.29534    
      9200  -19858.681      107.05297     -19751.628      199.02597      199.33596      129.35717    
      9300  -19856.931      107.74951     -19749.182      198.9973       199.31573      129.41901    
      9400  -19851.986      106.48825     -19745.497      198.9671       199.29165      129.48084    
      9500  -19849.07       109.29093     -19739.779      198.94033      199.26609      129.54268    
      9600  -19847.544      110.43137     -19737.112      198.91332      199.23648      129.60451    
      9700  -19848.665      109.25075     -19739.414      198.88595      199.20834      129.66635    
      9800  -19844.015      105.56257     -19738.452      198.85323      199.18117      129.72818    
      9900  -19842.833      106.61945     -19736.214      198.81765      199.15941      129.79001    
     10000  -19840.366      107.56315     -19732.803      198.77731      199.13718      129.85185    
     10100  -19834.339      106.67491     -19727.664      198.73957      199.11414      129.91368    
     10200  -19834.046      110.29947     -19723.746      198.70456      199.08463      129.97552    
     10300  -19832.493      107.5176      -19724.976      198.6739       199.0506       130.03735    
     10400  -19831.527      106.14672     -19725.38       198.64235      199.01472      130.09919    
     10500  -19830.173      107.59693     -19722.576      198.60782      198.98141      130.16102    
     10600  -19824.548      106.42903     -19718.119      198.56826      198.95104      130.22285    
     10700  -19822.522      109.99284     -19712.529      198.52534      198.92348      130.28469    
     10800  -19820.651      110.88864     -19709.762      198.48149      198.89285      130.34652    
     10900  -19820.081      107.18746     -19712.893      198.44091      198.8608       130.40836    
     11000  -19816.011      104.84319     -19711.168      198.39941      198.82339      130.47019    
     11100  -19815.698      109.02796     -19706.67       198.35923      198.78691      130.53202    
     11200  -19809.73       108.23263     -19701.497      198.31512      198.75031      130.59386    
     11300  -19805.82       107.21535     -19698.605      198.27033      198.71423      130.65569    
     11400  -19807.13       107.37982     -19699.75       198.22512      198.67471      130.71753    
     11500  -19802.967      103.3637      -19699.603      198.18263      198.63365      130.77936    
     11600  -19800.406      104.97843     -19695.428      198.13723      198.59091      130.8412     
     11700  -19796.867      106.47621     -19690.391      198.0897       198.55107      130.90303    
     11800  -19793.77       107.16803     -19686.602      198.03671      198.51267      130.96486    
     11900  -19790.505      106.29865     -19684.207      197.98193      198.47641      131.0267     
     12000  -19790.03       107.32249     -19682.707      197.92725      198.43552      131.08853    
     12100  -19787.347      106.74826     -19680.599      197.87802      198.39012      131.15037    
     12200  -19784.552      104.56178     -19679.99       197.82904      198.34004      131.2122     
     12300  -19782.409      104.3856      -19678.024      197.78063      198.2897       131.27404    
     12400  -19776.7        104.34142     -19672.359      197.72718      198.24046      131.33587    
     12500  -19775.075      108.15315     -19666.922      197.66835      198.19724      131.3977     
     12600  -19770.855      106.98477     -19663.871      197.60428      198.15483      131.45954    
     12700  -19772.245      108.27573     -19663.969      197.54216      198.11072      131.52137    
     12800  -19768.304      104.43995     -19663.864      197.48307      198.06013      131.58321    
     12900  -19765.153      104.82526     -19660.328      197.42782      198.00605      131.64504    
     13000  -19761.25       105.18441     -19656.066      197.37132      197.94945      131.70687    
     13100  -19759.208      107.3644      -19651.844      197.31205      197.89562      131.76871    
     13200  -19755.712      107.61289     -19648.099      197.24784      197.84373      131.83054    
     13300  -19751.993      106.95812     -19645.035      197.18251      197.79232      131.89238    
     13400  -19749.268      105.42074     -19643.847      197.11681      197.73787      131.95421    
     13500  -19747.112      103.93722     -19643.175      197.05227      197.68286      132.01605    
     13600  -19745.587      105.42475     -19640.162      196.98534      197.62594      132.07788    
     13700  -19739.601      105.57532     -19634.026      196.91818      197.57092      132.13971    
     13800  -19736.035      107.57852     -19628.457      196.84755      197.51427      132.20155    
     13900  -19735.524      108.84986     -19626.674      196.77914      197.45827      132.26338    
     14000  -19732.526      106.99102     -19625.535      196.71014      197.39614      132.32522    
     14100  -19728.733      105.49379     -19623.239      196.64505      197.33461      132.38705    
     14200  -19726.107      106.0226      -19620.085      196.57634      197.26993      132.44889    
     14300  -19723.305      106.93517     -19616.37       196.50712      197.21006      132.51072    
     14400  -19720.459      107.65144     -19612.807      196.43047      197.15087      132.57255    
     14500  -19716.172      106.53582     -19609.636      196.35492      197.09506      132.63439    
     14600  -19715.862      109.29124     -19606.571      196.27658      197.03521      132.69622    
     14700  -19709.998      106.29291     -19603.705      196.20365      196.97418      132.75806    
     14800  -19708.668      108.35423     -19600.314      196.13178      196.90619      132.81989    
     14900  -19703.299      107.28981     -19596.01       196.06411      196.83822      132.88172    
     15000  -19699.955      107.44947     -19592.505      195.99227      196.76884      132.94356    
     15100  -19696.997      106.67344     -19590.323      195.91731      196.7056       133.00539    
     15200  -19696.534      106.95818     -19589.576      195.83672      196.64424      133.06723    
     15300  -19693.659      105.78527     -19587.874      195.75691      196.58494      133.12906    
     15400  -19689.767      107.82492     -19581.942      195.67769      196.52192      133.1909     
     15500  -19683.76       108.7639      -19574.996      195.60295      196.45633      133.25273    
     15600  -19681.356      109.48886     -19571.867      195.52933      196.38707      133.31456    
     15700  -19679.277      108.32582     -19570.951      195.45601      196.31976      133.3764     
     15800  -19674.565      104.87525     -19569.69       195.37863      196.25267      133.43823    
     15900  -19670.504      104.37034     -19566.133      195.30224      196.18877      133.50007    
     16000  -19666.362      108.55268     -19557.809      195.22396      196.12224      133.5619     
     16100  -19663.124      109.61098     -19553.513      195.14894      196.05718      133.62374    
     16200  -19659.6        106.92559     -19552.674      195.07119      195.99022      133.68557    
     16300  -19657.817      105.7311      -19552.086      194.99319      195.92748      133.7474     
     16400  -19654.029      104.95677     -19549.072      194.91284      195.8645       133.80924    
     16500  -19649.699      105.61133     -19544.088      194.83623      195.80067      133.87107    
     16600  -19645.267      107.22606     -19538.041      194.76195      195.73336      133.93291    
     16700  -19639.357      110.04714     -19529.31       194.69088      195.66444      133.99474    
     16800  -19636.637      110.96538     -19525.672      194.61956      195.59545      134.05657    
     16900  -19634.442      108.92931     -19525.512      194.54523      195.52911      134.11841    
     17000  -19630.711      105.80665     -19524.904      194.46837      195.46815      134.18024    
     17100  -19629.873      106.51588     -19523.357      194.3876       195.40933      134.24208    
     17200  -19625.792      105.02716     -19520.765      194.30984      195.34995      134.30391    
     17300  -19623.437      107.25011     -19516.187      194.23527      195.28669      134.36575    
     17400  -19617.388      108.87653     -19508.511      194.16488      195.22153      134.42758    
     17500  -19614.459      109.92099     -19504.538      194.09544      195.1554       134.48941    
     17600  -19612.915      109.111       -19503.804      194.0255       195.09088      134.55125    
     17700  -19608.179      106.31822     -19501.861      193.95398      195.02916      134.61308    
     17800  -19604.841      106.75179     -19498.089      193.88124      194.96939      134.67492    
     17900  -19599.17       105.80336     -19493.367      193.8095       194.90986      134.73675    
     18000  -19594.924      107.4914      -19487.433      193.73911      194.84996      134.79859    
     18100  -19591.907      111.82718     -19480.08       193.66909      194.79127      134.86042    
     18200  -19587.708      110.72975     -19476.978      193.59753      194.7342       134.92225    
     18300  -19582.969      104.79323     -19478.176      193.52572      194.67869      134.98409    
     18400  -19580.911      105.40104     -19475.51       193.45697      194.62142      135.04592    
     18500  -19578.111      106.75631     -19471.354      193.39306      194.56016      135.10776    
     18600  -19576.68       110.57496     -19466.105      193.33231      194.49726      135.16959    
     18700  -19569.251      108.75791     -19460.493      193.27039      194.43617      135.23142    
     18800  -19563.644      107.73608     -19455.908      193.20505      194.38037      135.29326    
     18900  -19561.499      106.30629     -19455.192      193.13617      194.3288       135.35509    
     19000  -19559.936      105.77929     -19454.157      193.06721      194.27873      135.41693    
     19100  -19556.397      106.59847     -19449.799      193.00034      194.22775      135.47876    
     19200  -19549.546      106.33833     -19443.208      192.93709      194.1747       135.5406     
     19300  -19545.125      108.65563     -19436.469      192.87705      194.11945      135.60243    
     19400  -19540.487      107.16269     -19433.324      192.81872      194.06358      135.66426    
     19500  -19537.909      107.10658     -19430.803      192.76014      194.00852      135.7261     
     19600  -19534.737      106.12209     -19428.615      192.70134      193.95529      135.78793    
     19700  -19532.721      106.73504     -19425.986      192.6417       193.90379      135.84977    
     19800  -19527.748      105.07265     -19422.676      192.58179      193.85357      135.9116     
     19900  -19521.515      103.93694     -19417.578      192.52205      193.80504      135.97344    
     20000  -19519.353      108.67502     -19410.678      192.46218      193.75674      136.03527    
     20100  -19512.481      106.39063     -19406.09       192.40326      193.71018      136.0971     
     20200  -19511.613      107.18116     -19404.432      192.34345      193.66341      136.15894    
     20300  -19511.071      107.12607     -19403.945      192.28659      193.61782      136.22077    
     20400  -19505.29       105.79463     -19399.496      192.2317       193.56713      136.28261    
     20500  -19501.752      108.15532     -19393.597      192.18284      193.51639      136.34444    
     20600  -19496.055      107.62634     -19388.429      192.13249      193.46329      136.40627    
     20700  -19490.461      106.89171     -19383.57       192.082        193.4157       136.46811    
     20800  -19485.019      105.80653     -19379.212      192.02547      193.37106      136.52994    
     20900  -19481.74       106.87668     -19374.863      191.96855      193.33116      136.59178    
     21000  -19478.359      107.1421      -19371.217      191.91185      193.28962      136.65361    
     21100  -19475.192      106.37011     -19368.822      191.85857      193.2472       136.71545    
     21200  -19472.414      106.55863     -19365.855      191.80663      193.20303      136.77728    
     21300  -19466.93       106.13274     -19360.797      191.75672      193.1591       136.83911    
     21400  -19457.907      105.27871     -19352.628      191.70721      193.11509      136.90095    
     21500  -19456.102      108.38654     -19347.716      191.65937      193.07084      136.96278    
     21600  -19453.245      107.9258      -19345.319      191.6133       193.02431      137.02462    
     21700  -19449.111      106.17623     -19342.935      191.56888      192.97854      137.08645    
     21800  -19444.301      105.13761     -19339.163      191.52157      192.93432      137.14829    
     21900  -19439.357      104.93396     -19334.423      191.47161      192.89574      137.21012    
     22000  -19437.334      107.95237     -19329.382      191.41834      192.85994      137.27195    
     22100  -19431.36       107.49082     -19323.869      191.36547      192.82432      137.33379    
     22200  -19424.471      106.57304     -19317.898      191.31715      192.7859       137.39562    
     22300  -19424.434      111.64621     -19312.788      191.27262      192.74285      137.45746    
     22400  -19420.021      108.01702     -19312.004      191.2311       192.69898      137.51929    
     22500  -19417.036      106.84368     -19310.192      191.18774      192.65622      137.58113    
     22600  -19409.306      104.08271     -19305.224      191.14357      192.61676      137.64296    
     22700  -19407.565      109.78072     -19297.784      191.0988       192.57698      137.70479    
     22800  -19398.319      106.74224     -19291.577      191.05622      192.537        137.76663    
     22900  -19396.254      108.25722     -19287.997      191.01275      192.49691      137.82846    
     23000  -19390.895      105.89191     -19285.003      190.96736      192.46036      137.8903     
     23100  -19391.508      109.41593     -19282.092      190.91962      192.42597      137.95213    
     23200  -19383.854      105.15291     -19278.701      190.87189      192.39292      138.01396    
     23300  -19379.187      105.92698     -19273.26       190.82584      192.35716      138.0758     
     23400  -19373.705      108.36231     -19265.342      190.78479      192.31858      138.13763    
     23500  -19368.318      108.27645     -19260.041      190.74662      192.27678      138.19947    
     23600  -19363.143      105.29839     -19257.845      190.7095       192.23474      138.2613     
     23700  -19359.726      103.02012     -19256.706      190.67027      192.19481      138.32314    
     23800  -19356.176      104.27003     -19251.906      190.62865      192.15874      138.38497    
     23900  -19350.486      104.76128     -19245.724      190.5849       192.12415      138.4468     
     24000  -19347.643      107.8064      -19239.837      190.54173      192.09037      138.50864    
     24100  -19342.854      108.19284     -19234.661      190.49797      192.056        138.57047    
     24200  -19336.744      106.04457     -19230.7        190.45569      192.02283      138.63231    
     24300  -19333.815      105.47947     -19228.336      190.41298      191.98759      138.69414    
     24400  -19331.493      103.58422     -19227.909      190.37241      191.95269      138.75598    
     24500  -19325.222      103.64268     -19221.579      190.33321      191.91561      138.81781    
     24600  -19322.791      109.48477     -19213.306      190.29686      191.87722      138.87964    
     24700  -19316.724      109.40353     -19207.321      190.26071      191.83715      138.94148    
     24800  -19309.97       107.17408     -19202.796      190.22433      191.79996      139.00331    
     24900  -19306.617      107.285       -19199.332      190.18373      191.76542      139.06515    
     25000  -19302.273      104.80462     -19197.468      190.14065      191.73503      139.12698    
     25100  -19297.225      103.55996     -19193.665      190.09622      191.70537      139.18881    
     25200  -19291.58       106.40427     -19185.176      190.05433      191.67377      139.25065    
     25300  -19288.451      109.91947     -19178.531      190.01522      191.64001      139.31248    
     25400  -19280.753      106.61096     -19174.142      189.97757      191.60377      139.37432    
     25500  -19276.812      105.45382     -19171.358      189.94145      191.56709      139.43615    
     25600  -19275.605      105.54292     -19170.062      189.90502      191.53026      139.49799    
     25700  -19270.69       104.70569     -19165.984      189.86871      191.49494      139.55982    
     25800  -19265.525      109.80224     -19155.722      189.8309       191.45912      139.62165    
     25900  -19256.054      106.37738     -19149.676      189.79461      191.42503      139.68349    
     26000  -19253.782      108.24407     -19145.538      189.75554      191.39146      139.74532    
     26100  -19249.61       106.31116     -19143.299      189.71466      191.36168      139.80716    
     26200  -19244.56       104.16506     -19140.395      189.67136      191.33291      139.86899    
     26300  -19239.254      105.92372     -19133.33       189.62989      191.30371      139.93083    
     26400  -19232.688      108.33613     -19124.352      189.59221      191.27047      139.99266    
     26500  -19229.64       109.45166     -19120.188      189.5591       191.23221      140.05449    
     26600  -19226.588      108.61535     -19117.972      189.52792      191.1923       140.11633    
     26700  -19220.567      105.60989     -19114.958      189.49491      191.15488      140.17816    
     26800  -19214.688      104.89957     -19109.789      189.4564       191.12146      140.24       
     26900  -19208.744      108.81096     -19099.933      189.4158       191.09287      140.30183    
     27000  -19202.759      108.65575     -19094.103      189.37495      191.06246      140.36366    
     27100  -19200.136      107.93115     -19092.205      189.3381       191.03045      140.4255     
     27200  -19198.031      108.17248     -19089.858      189.30099      190.99612      140.48733    
     27300  -19189.245      104.12678     -19085.119      189.26408      190.96477      140.54917    
     27400  -19186.543      107.79685     -19078.746      189.22428      190.93352      140.611      
     27500  -19177.734      107.59051     -19070.144      189.18679      190.90248      140.67284    
     27600  -19171.379      108.37119     -19063.008      189.15226      190.86642      140.73467    
     27700  -19169.58       109.20129     -19060.379      189.12147      190.8279       140.7965     
     27800  -19165.348      108.2614      -19057.086      189.09001      190.78885      140.85834    
     27900  -19159.953      105.55169     -19054.401      189.05479      190.7553       140.92017    
     28000  -19156.71       105.44822     -19051.261      189.01304      190.726        140.98201    
     28100  -19152.506      106.23398     -19046.272      188.97115      190.70075      141.04384    
     28200  -19145.234      108.18567     -19037.048      188.92993      190.67031      141.10568    
     28300  -19139.152      108.63328     -19030.519      188.89592      190.63773      141.16751    
     28400  -19136.677      109.3467      -19027.33       188.86229      190.59979      141.22934    
     28500  -19131.475      106.66459     -19024.811      188.83012      190.56482      141.29118    
     28600  -19125.581      104.97261     -19020.608      188.79312      190.53108      141.35301    
     28700  -19120.352      105.37542     -19014.977      188.75667      190.4996       141.41485    
     28800  -19114.811      105.86489     -19008.947      188.72163      190.4645       141.47668    
     28900  -19109.745      106.89888     -19002.846      188.68905      190.4285       141.53851    
     29000  -19103.184      105.98592     -18997.198      188.65486      190.39308      141.60035    
     29100  -19097.501      105.79909     -18991.701      188.61703      190.36231      141.66218    
     29200  -19097.284      109.60976     -18987.674      188.5749       190.33507      141.72402    
     29300  -19092.068      107.00227     -18985.065      188.53359      190.3082       141.78585    
     29400  -19084.036      102.93023     -18981.105      188.49595      190.27641      141.84769    
     29500  -19079.528      106.51687     -18973.012      188.46381      190.24002      141.90952    
     29600  -19073.327      108.32541     -18965.001      188.4338       190.20142      141.97135    
     29700  -19069.824      109.23815     -18960.586      188.40185      190.16383      142.03319    
     29800  -19062.954      105.65915     -18957.295      188.36675      190.13052      142.09502    
     29900  -19060.777      107.19398     -18953.583      188.32735      190.09952      142.15686    
     30000  -19054.382      105.11418     -18949.268      188.29011      190.07039      142.21869    
     30100  -19049.756      105.58168     -18944.175      188.25236      190.03555      142.28053    
     30200  -19041.788      105.08501     -18936.703      188.21878      190.00377      142.34236    
     30300  -19037.476      108.11997     -18929.356      188.17942      189.97048      142.40419    
     30400  -19032.285      108.51402     -18923.771      188.14096      189.94362      142.46603    
     30500  -19028.486      107.13423     -18921.351      188.10021      189.91171      142.52786    
     30600  -19025.844      106.70562     -18919.138      188.06687      189.8792       142.5897     
     30700  -19019.383      106.48522     -18912.898      188.03529      189.83891      142.65153    
     30800  -19012.872      107.19613     -18905.676      188.00772      189.80032      142.71336    
     30900  -19005.185      105.65143     -18899.533      187.97285      189.76305      142.7752     
     31000  -19001.292      107.12095     -18894.171      187.93478      189.73543      142.83703    
     31100  -18996.227      106.68301     -18889.544      187.89029      189.70687      142.89887    
     31200  -18992.814      105.69423     -18887.12       187.85279      189.67875      142.9607     
     31300  -18988.877      104.53444     -18884.343      187.81521      189.64254      143.02254    
     31400  -18982.325      105.44117     -18876.884      187.78269      189.6098       143.08437    
     31500  -18974.748      106.90752     -18867.841      187.74363      189.57625      143.1462     
     31600  -18969.497      107.52159     -18861.976      187.70534      189.54831      143.20804    
     31700  -18966.484      109.19566     -18857.288      187.66568      189.51593      143.26987    
     31800  -18957.427      103.13414     -18854.293      187.63385      189.4806       143.33171    
     31900  -18957.221      106.13347     -18851.088      187.60412      189.43963      143.39354    
     32000  -18948.181      103.98086     -18844.2        187.57409      189.40127      143.45538    
     32100  -18944.246      109.71093     -18834.536      187.53658      189.36759      143.51721    
     32200  -18939.316      110.61218     -18828.704      187.49559      189.3413       143.57904    
     32300  -18931.395      106.52612     -18824.869      187.45114      189.3133       143.64088    
     32400  -18928.108      105.52318     -18822.584      187.4139       189.28363      143.70271    
     32500  -18923.269      104.77076     -18818.498      187.37824      189.2467       143.76455    
     32600  -18917.772      109.34437     -18808.427      187.34583      189.21253      143.82638    
     32700  -18908.524      107.35744     -18801.167      187.30684      189.17841      143.88821    
     32800  -18905.843      108.44045     -18797.402      187.26998      189.14903      143.95005    
     32900  -18901.209      106.67403     -18794.535      187.23195      189.11366      144.01188    
     33000  -18895.312      105.21851     -18790.094      187.20195      189.07677      144.07372    
     33100  -18888.072      106.8554      -18781.216      187.16974      189.0361       144.13555    
     33200  -18881.616      108.61976     -18772.996      187.13624      189.00249      144.19739    
     33300  -18876.057      107.23406     -18768.823      187.0942       188.97162      144.25922    
     33400  -18873.869      107.76015     -18766.109      187.05235      188.94605      144.32105    
     33500  -18866.117      104.48287     -18761.634      187.0099       188.91532      144.38289    
     33600  -18862.146      106.23371     -18755.913      186.97434      188.88288      144.44472    
     33700  -18855.181      106.19921     -18748.981      186.93836      188.84593      144.50656    
     33800  -18849.779      106.89611     -18742.883      186.90329      188.81323      144.56839    
     33900  -18844.479      107.00516     -18737.474      186.86369      188.77987      144.63023    
     34000  -18837.13       104.90159     -18732.228      186.82702      188.7487       144.69206    
     34100  -18833.111      106.23968     -18726.871      186.79144      188.71169      144.75389    
     34200  -18828.448      107.5321      -18720.916      186.75998      188.67436      144.81573    
     34300  -18821.778      107.29746     -18714.481      186.72561      188.63619      144.87756    
     34400  -18814.264      106.66847     -18707.595      186.68853      188.60406      144.9394     
     34500  -18810.826      109.52749     -18701.298      186.64564      188.57503      145.00123    
     34600  -18803.383      104.86174     -18698.521      186.60291      188.54684      145.06306    
     34700  -18803.768      107.81834     -18695.95       186.56309      188.51603      145.1249     
     34800  -18797.383      107.54569     -18689.838      186.52663      188.48016      145.18673    
     34900  -18791.047      109.23191     -18681.815      186.49318      188.44474      145.24857    
     35000  -18783.728      108.58183     -18675.146      186.45594      188.40848      145.3104     
     35100  -18776.383      106.50734     -18669.876      186.41923      188.37709      145.37224    
     35200  -18770.458      105.1732      -18665.284      186.38027      188.34191      145.43407    
     35300  -18767.443      106.61079     -18660.833      186.34723      188.30643      145.4959     
     35400  -18762.13       106.37609     -18655.754      186.31279      188.26649      145.55774    
     35500  -18755.239      106.50013     -18648.739      186.27836      188.23235      145.61957    
     35600  -18749.949      109.95745     -18639.992      186.23556      188.20078      145.68141    
     35700  -18743.106      108.95184     -18634.155      186.19279      188.1753       145.74324    
     35800  -18739.817      107.94887     -18631.868      186.14842      188.1441       145.80508    
     35900  -18735.878      107.53783     -18628.34       186.11282      188.11163      145.86691    
     36000  -18728.676      106.4802      -18622.195      186.07707      188.0715       145.92874    
     36100  -18723.708      108.5563      -18615.152      186.04519      188.03591      145.99058    
     36200  -18713.651      105.89159     -18607.76       186.00673      187.99934      146.05241    
     36300  -18710.399      109.75857     -18600.64       185.9693       187.96709      146.11425    
     36400  -18701.79       107.65476     -18594.136      185.93136      187.93222      146.17608    
     36500  -18697.375      107.50072     -18589.874      185.8957       187.89659      146.23791    
     36600  -18694.07       106.98045     -18587.09       185.85996      187.85966      146.29975    
     36700  -18688.183      105.24744     -18582.935      185.82134      187.82676      146.36158    
     36800  -18680.076      104.36988     -18575.706      185.77858      187.79584      146.42342    
     36900  -18673.852      107.52783     -18566.324      185.7368       187.76754      146.48525    
     37000  -18669.729      109.55656     -18560.173      185.69573      187.73387      146.54709    
     37100  -18661.355      105.32077     -18556.034      185.66106      187.69861      146.60892    
     37200  -18657.383      105.63223     -18551.751      185.6265       187.65917      146.67075    
     37300  -18652.709      106.0768      -18546.633      185.59301      187.62243      146.73259    
     37400  -18646.608      105.79116     -18540.817      185.55478      187.58634      146.79442    
     37500  -18640.139      107.11036     -18533.029      185.51729      187.55361      146.85626    
     37600  -18633.727      108.89806     -18524.829      185.478        187.51854      146.91809    
     37700  -18628.886      108.4742      -18520.412      185.44211      187.48367      146.97993    
     37800  -18624.201      105.68451     -18518.517      185.40398      187.44713      147.04176    
     37900  -18620.666      107.09578     -18513.57       185.36538      187.4149       147.10359    
     38000  -18614.702      107.96621     -18506.736      185.32314      187.38281      147.16543    
     38100  -18605.328      106.47029     -18498.857      185.28267      187.35184      147.22726    
     38200  -18599.889      110.70984     -18489.179      185.24418      187.31751      147.2891     
     38300  -18594.02       111.6103      -18482.41       185.20819      187.28043      147.35093    
     38400  -18588.385      105.91139     -18482.473      185.17462      187.24272      147.41276    
     38500  -18582.835      104.61126     -18478.224      185.13879      187.20379      147.4746     
     38600  -18576.894      104.42434     -18472.47       185.10365      187.16885      147.53643    
     38700  -18572.092      107.36609     -18464.726      185.06382      187.13373      147.59827    
     38800  -18564.991      108.3845      -18456.606      185.02698      187.1004       147.6601     
     38900  -18559.76       108.94371     -18450.816      184.98805      187.06335      147.72194    
     39000  -18555.773      105.82857     -18449.945      184.95208      187.03014      147.78377    
     39100  -18550.034      104.75931     -18445.275      184.91003      186.99435      147.8456     
     39200  -18543.854      106.58182     -18437.272      184.87202      186.96532      147.90744    
     39300  -18537.841      108.68073     -18429.16       184.82943      186.92984      147.96927    
     39400  -18531.618      108.37926     -18423.239      184.79461      186.89649      148.03111    
     39500  -18527.174      108.64663     -18418.527      184.75805      186.85718      148.09294    
     39600  -18522.932      106.40346     -18416.529      184.72476      186.82034      148.15478    
     39700  -18517.785      104.02716     -18413.758      184.68821      186.78201      148.21661    
     39800  -18509.298      104.50177     -18404.796      184.65182      186.74741      148.27844    
     39900  -18503.334      107.2634      -18396.071      184.613        186.71195      148.34028    
     40000  -18495.66       107.48521     -18388.174      184.57607      186.67828      148.40211    
     40100  -18490.008      108.52391     -18381.484      184.53726      186.64205      148.46395    
     40200  -18483.65       105.37761     -18378.273      184.49977      186.60855      148.52578    
     40300  -18479.237      103.6731      -18375.564      184.45927      186.57462      148.58762    
     40400  -18476.867      107.92029     -18368.947      184.42036      186.54242      148.64945    
     40500  -18468.851      107.6888      -18361.162      184.38113      186.50807      148.71128    
     40600  -18463.237      109.22985     -18354.008      184.34511      186.47271      148.77312    
     40700  -18455.109      107.3961      -18347.713      184.30968      186.43416      148.83495    
     40800  -18450.353      107.6648      -18342.688      184.276        186.39685      148.89679    
     40900  -18445.016      104.991       -18340.025      184.23967      186.35923      148.95862    
     41000  -18439.369      103.74084     -18335.628      184.20306      186.32356      149.02045    
     41100  -18431.804      105.47645     -18326.328      184.16541      186.28918      149.08229    
     41200  -18426.989      108.58091     -18318.408      184.1271       186.25375      149.14412    
     41300  -18419.413      106.703       -18312.71       184.09009      186.2195       149.20596    
     41400  -18413.587      105.52813     -18308.059      184.05151      186.18426      149.26779    
     41500  -18409.383      104.86431     -18304.518      184.01316      186.15158      149.32963    
     41600  -18403.515      102.72037     -18300.795      183.97318      186.11801      149.39146    
     41700  -18397.551      105.16845     -18292.382      183.9352       186.08501      149.45329    
     41800  -18387.916      104.98633     -18282.929      183.89796      186.04899      149.51513    
     41900  -18385.984      109.56812     -18276.416      183.86407      186.01224      149.57696    
     42000  -18376.604      105.55767     -18271.047      183.82911      185.97334      149.6388     
     42100  -18372.503      105.06119     -18267.442      183.79499      185.93722      149.70063    
     42200  -18368.784      105.20976     -18263.574      183.75693      185.90088      149.76247    
     42300  -18361.209      105.85016     -18255.359      183.72034      185.8671       149.8243     
     42400  -18352.221      106.5415      -18245.679      183.68258      185.83127      149.88613    
     42500  -18348.731      108.76677     -18239.965      183.64685      185.79706      149.94797    
     42600  -18343.095      106.9733      -18236.122      183.6083       185.76161      150.0098     
     42700  -18338.428      106.03899     -18232.389      183.56992      185.73044      150.07164    
     42800  -18331.34       105.01336     -18226.326      183.52889      185.69716      150.13347    
     42900  -18324.652      108.71157     -18215.941      183.49218      185.66464      150.1953     
     43000  -18316.315      107.65531     -18208.66       183.45619      185.62722      150.25714    
     43100  -18311.77       107.18865     -18204.581      183.42315      185.59029      150.31897    
     43200  -18306.588      104.77613     -18201.812      183.38737      185.55246      150.38081    
     43300  -18303.871      107.87526     -18195.996      183.35194      185.5177       150.44264    
     43400  -18294.868      106.08084     -18188.787      183.31458      185.48255      150.50448    
     43500  -18288.272      106.25277     -18182.019      183.27905      185.4474       150.56631    
     43600  -18281.256      105.55269     -18175.703      183.24343      185.41082      150.62814    
     43700  -18277.548      107.58569     -18169.962      183.20801      185.37638      150.68998    
     43800  -18271.249      106.99796     -18164.251      183.16859      185.34318      150.75181    
     43900  -18264.048      104.4666      -18159.582      183.12936      185.3127       150.81365    
     44000  -18259.771      104.56677     -18155.204      183.09024      185.28024      150.87548    
     44100  -18254.945      107.56936     -18147.376      183.0542       185.24563      150.93732    
     44200  -18247.198      109.13353     -18138.065      183.02027      185.20987      150.99915    
     44300  -18238.831      107.61604     -18131.215      182.98468      185.17308      151.06098    
     44400  -18232.359      105.86688     -18126.492      182.94957      185.13922      151.12282    
     44500  -18230.07       105.34194     -18124.728      182.91254      185.10382      151.18465    
     44600  -18224.967      105.437       -18119.53       182.87934      185.0689       151.24649    
     44700  -18216.841      105.50494     -18111.336      182.84423      185.03105      151.30832    
     44800  -18210.32       107.13079     -18103.189      182.811        184.99684      151.37015    
     44900  -18202.988      107.08793     -18095.901      182.77205      184.96266      151.43199    
     45000  -18198.317      108.47925     -18089.837      182.7345       184.93357      151.49382    
     45100  -18192.644      105.36801     -18087.276      182.69403      184.90115      151.55566    
     45200  -18187.243      104.40994     -18082.833      182.65836      184.86976      151.61749    
     45300  -18180.65       106.58989     -18074.06       182.62278      184.83369      151.67933    
     45400  -18173.075      107.43157     -18065.643      182.58894      184.79905      151.74116    
     45500  -18168.238      108.6318      -18059.606      182.55361      184.7645       151.80299    
     45600  -18161.743      107.00028     -18054.743      182.51941      184.72974      151.86483    
     45700  -18155.437      104.91539     -18050.522      182.48536      184.69368      151.92666    
     45800  -18152.742      106.93033     -18045.812      182.45234      184.659        151.9885     
     45900  -18146.664      104.92903     -18041.735      182.41679      184.62331      152.05033    
     46000  -18138.548      104.92583     -18033.622      182.38297      184.59157      152.11217    
     46100  -18132.697      108.74249     -18023.954      182.34472      184.55819      152.174      
     46200  -18124.5        107.90459     -18016.595      182.30877      184.52897      152.23583    
     46300  -18119.301      107.73101     -18011.57       182.27026      184.49618      152.29767    
     46400  -18113.674      104.77469     -18008.899      182.23578      184.46529      152.3595     
     46500  -18109.918      105.54737     -18004.371      182.1998       184.43084      152.42134    
     46600  -18101.855      107.76056     -17994.094      182.16684      184.39765      152.48317    
     46700  -18093.911      108.36329     -17985.548      182.13292      184.36276      152.545      
     46800  -18090.535      109.96831     -17980.566      182.09926      184.32802      152.60684    
     46900  -18083.943      106.76923     -17977.173      182.06655      184.29429      152.66867    
     47000  -18077.786      105.87317     -17971.913      182.03265      184.25865      152.73051    
     47100  -18071.174      106.96551     -17964.209      182.00016      184.22652      152.79234    
     47200  -18062.399      108.65517     -17953.744      181.96366      184.19325      152.85418    
     47300  -18056.701      108.73059     -17947.971      181.92953      184.16358      152.91601    
     47400  -18049.658      105.71724     -17943.941      181.89175      184.13236      152.97784    
     47500  -18045.385      106.1499      -17939.235      181.85652      184.10363      153.03968    
     47600  -18039.431      106.45341     -17932.978      181.81996      184.07107      153.10151    
     47700  -18033.076      106.48496     -17926.591      181.78752      184.03944      153.16335    
     47800  -18027.16       106.1066      -17921.053      181.75417      184.00469      153.22518    
     47900  -18023.676      105.85982     -17917.816      181.72297      183.97144      153.28702    
     48000  -18018.524      106.55887     -17911.965      181.69065      183.93772      153.34885    
     48100  -18008.081      106.12993     -17901.951      181.65849      183.90397      153.41068    
     48200  -18000.415      106.40839     -17894.007      181.62727      183.87111      153.47252    
     48300  -17994.421      106.20194     -17888.219      181.59418      183.83741      153.53435    
     48400  -17989.741      105.26766     -17884.474      181.56136      183.807        153.59619    
     48500  -17985.977      104.57514     -17881.402      181.52467      183.77728      153.65802    
     48600  -17977.068      102.21737     -17874.85       181.48894      183.75021      153.71985    
     48700  -17971.942      109.04841     -17862.893      181.45285      183.72071      153.78169    
     48800  -17965.987      109.89243     -17856.094      181.42063      183.68933      153.84352    
     48900  -17958.606      106.16271     -17852.443      181.38946      183.65548      153.90536    
     49000  -17952.45       103.71422     -17848.736      181.35956      183.62228      153.96719    
     49100  -17948.064      105.82803     -17842.236      181.32856      183.58945      154.02903    
     49200  -17939.384      106.42235     -17832.962      181.2965       183.55762      154.09086    
     49300  -17934.071      110.74065     -17823.33       181.26514      183.52618      154.15269    
     49400  -17924.65       106.04904     -17818.601      181.23386      183.4939       154.21453    
     49500  -17922.194      107.61807     -17814.576      181.20336      183.46246      154.27636    
     49600  -17916.192      106.07264     -17810.119      181.17056      183.43182      154.3382     
     49700  -17911.791      106.82318     -17804.967      181.137        183.40414      154.40003    
     49800  -17904.77       105.87054     -17798.899      181.10128      183.37615      154.46187    
     49900  -17898.46       108.38354     -17790.076      181.06782      183.34869      154.5237     
     50000  -17890.917      109.1464      -17781.771      181.03604      183.31843      154.58553    
     50100  -17886.428      109.13641     -17777.292      181.00583      183.28623      154.64737    
     50200  -17879.007      104.72094     -17774.287      180.97716      183.25508      154.7092     
     50300  -17875.575      107.58635     -17767.989      180.94699      183.22241      154.77104    
     50400  -17868.805      108.10043     -17760.705      180.91797      183.19155      154.83287    
     50500  -17862.319      109.83579     -17752.484      180.88821      183.16056      154.8947     
     50600  -17851.603      109.23105     -17742.372      180.85867      183.12926      154.95654    
     50700  -17844.134      108.01017     -17736.124      180.82978      183.09958      155.01837    
     50800  -17841.44       107.50007     -17733.94       180.79689      183.06991      155.08021    
     50900  -17837.616      108.52289     -17729.093      180.76459      183.04523      155.14204    
     51000  -17830.343      106.31735     -17724.026      180.72885      183.01815      155.20388    
     51100  -17825.497      107.08367     -17718.413      180.69782      182.99268      155.26571    
     51200  -17818.017      106.06593     -17711.951      180.66629      182.96199      155.32754    
     51300  -17811.711      108.30907     -17703.402      180.6386       182.93235      155.38938    
     51400  -17803.404      108.1634      -17695.241      180.60979      182.90131      155.45121    
     51500  -17797.533      106.8404      -17690.693      180.58111      182.87171      155.51305    
     51600  -17793.273      105.08531     -17688.188      180.55238      182.84237      155.57488    
     51700  -17787.425      105.65404     -17681.771      180.52472      182.81195      155.63672    
     51800  -17780.109      106.84363     -17673.266      180.49767      182.78173      155.69855    
     51900  -17773.754      108.85524     -17664.899      180.46968      182.75131      155.76038    
     52000  -17768.084      108.54555     -17659.538      180.44059      182.72363      155.82222    
     52100  -17764.258      105.63697     -17658.621      180.40876      182.69771      155.88405    
     52200  -17757.056      105.38124     -17651.675      180.3764       182.67361      155.94589    
     52300  -17748.777      106.79496     -17641.982      180.34401      182.64846      156.00772    
     52400  -17741.853      108.03799     -17633.815      180.31421      182.62188      156.06955    
     52500  -17734.832      106.07492     -17628.757      180.28568      182.59337      156.13139    
     52600  -17730.386      104.31217     -17626.073      180.25899      182.56577      156.19322    
     52700  -17722.616      103.04713     -17619.569      180.23056      182.53599      156.25506    
     52800  -17717.844      106.41969     -17611.425      180.20514      182.50993      156.31689    
     52900  -17711.441      108.59319     -17602.848      180.17626      182.4791       156.37873    
     53000  -17704.883      109.74269     -17595.14       180.15244      182.45232      156.44056    
     53100  -17698.635      106.00734     -17592.628      180.12399      182.42097      156.50239    
     53200  -17693.884      105.3993      -17588.485      180.09981      182.39514      156.56423    
     53300  -17686.377      105.38973     -17580.987      180.06932      182.36646      156.62606    
     53400  -17680.548      108.91454     -17571.634      180.04053      182.34496      156.6879     
     53500  -17672.979      109.08172     -17563.897      180.0078       182.321        156.74973    
     53600  -17666.673      105.54697     -17561.126      179.97879      182.29679      156.81157    
     53700  -17663.767      106.44163     -17557.325      179.95317      182.27168      156.8734     
     53800  -17654.424      104.65435     -17549.77       179.92493      182.24277      156.93523    
     53900  -17649.083      108.76016     -17540.323      179.9016       182.21912      156.99707    
     54000  -17642.32       109.5777      -17532.742      179.8723       182.18952      157.0589     
     54100  -17634.711      105.20688     -17529.504      179.84973      182.16506      157.12074    
     54200  -17631.414      105.54556     -17525.868      179.82363      182.13389      157.18257    
     54300  -17623.9        105.99578     -17517.904      179.80335      182.10679      157.2444     
     54400  -17614.946      106.21487     -17508.731      179.77815      182.07669      157.30624    
     54500  -17609.456      108.88279     -17500.574      179.75206      182.05301      157.36807    
     54600  -17602.254      105.23211     -17497.022      179.72206      182.03081      157.42991    
     54700  -17599.717      106.30066     -17493.416      179.69258      182.00925      157.49174    
     54800  -17592.932      106.68238     -17486.25       179.66567      181.98666      157.55358    
     54900  -17584.314      107.04313     -17477.271      179.63875      181.96184      157.61541    
     55000  -17578.167      109.28302     -17468.884      179.61233      181.93922      157.67724    
     55100  -17570.952      107.24289     -17463.71       179.58427      181.91609      157.73908    
     55200  -17568.383      106.96625     -17461.417      179.55898      181.89254      157.80091    
     55300  -17562.33       107.46358     -17454.866      179.53577      181.86514      157.86275    
     55400  -17554.165      107.77472     -17446.39       179.51486      181.83589      157.92458    
     55500  -17545.793      108.20053     -17437.592      179.49484      181.8088       157.98642    
     55600  -17540.588      110.2601      -17430.327      179.46903      181.78196      158.04825    
     55700  -17534.286      106.2384      -17428.048      179.44477      181.76182      158.11008    
     55800  -17531.351      108.09725     -17423.254      179.41633      181.73768      158.17192    
     55900  -17523.871      107.71413     -17416.157      179.39348      181.71667      158.23375    
     56000  -17515.407      107.74779     -17407.66       179.36759      181.69273      158.29559    
     56100  -17508.471      110.72173     -17397.749      179.34181      181.67149      158.35742    
     56200  -17500.425      109.31353     -17391.112      179.3144       181.65177      158.41925    
     56300  -17495.834      106.55848     -17389.276      179.2862       181.63094      158.48109    
     56400  -17489.895      106.32363     -17383.572      179.26352      181.6105       158.54292    
     56500  -17484.327      107.4182      -17376.909      179.23975      181.58183      158.60476    
     56600  -17476.976      107.34532     -17369.631      179.22297      181.55781      158.66659    
     56700  -17469.344      105.30486     -17364.039      179.19872      181.5294       158.72843    
     56800  -17464.05       104.07707     -17359.973      179.17862      181.50871      158.79026    
     56900  -17459.985      105.43483     -17354.551      179.15348      181.48451      158.85209    
     57000  -17453.371      107.78189     -17345.589      179.13184      181.4624       158.91393    
     57100  -17441.818      107.2491      -17334.569      179.10937      181.43873      158.97576    
     57200  -17437.145      108.74487     -17328.4        179.08578      181.41592      159.0376     
     57300  -17433.528      108.84976     -17324.679      179.06173      181.39739      159.09943    
     57400  -17425.568      106.13712     -17319.43       179.03274      181.3775       159.16127    
     57500  -17420.092      107.8348      -17312.257      179.00889      181.36221      159.2231     
     57600  -17411.461      105.83256     -17305.628      178.98128      181.33907      159.28493    
     57700  -17407.85       107.53781     -17300.312      178.96238      181.31895      159.34677    
     57800  -17404.77       108.46676     -17296.304      178.9412       181.2931       159.4086     
     57900  -17395.184      106.36323     -17288.821      178.92177      181.27033      159.47044    
     58000  -17384.325      106.09946     -17278.226      178.89994      181.24763      159.53227    
     58100  -17378.695      108.73333     -17269.961      178.87926      181.22503      159.59411    
     58200  -17371.851      107.43749     -17264.413      178.85983      181.20191      159.65594    
     58300  -17366.381      107.39213     -17258.989      178.83912      181.17773      159.71777    
     58400  -17361.026      107.76943     -17253.257      178.81933      181.15845      159.77961    
     58500  -17354.648      106.49113     -17248.157      178.79266      181.13789      159.84144    
     58600  -17348.145      105.81225     -17242.333      178.76906      181.12306      159.90328    
     58700  -17342.141      106.36397     -17235.777      178.7436       181.10456      159.96511    
     58800  -17336.147      107.21345     -17228.933      178.72122      181.08493      160.02694    
     58900  -17328.299      107.83336     -17220.466      178.70084      181.06392      160.08878    
     59000  -17320.609      108.64218     -17211.967      178.68027      181.04285      160.15061    
     59100  -17312.412      106.41112     -17206.001      178.65917      181.02236      160.21245    
     59200  -17308.984      106.28052     -17202.704      178.63845      181.00254      160.27428    
     59300  -17301.961      105.15808     -17196.802      178.62014      180.98046      160.33612    
     59400  -17295.212      106.72287     -17188.489      178.60239      180.95528      160.39795    
     59500  -17286.889      107.54021     -17179.349      178.58519      180.93315      160.45978    
     59600  -17281.376      110.37168     -17171.004      178.5636       180.91337      160.52162    
     59700  -17274.215      108.4933      -17165.722      178.54063      180.89699      160.58345    
     59800  -17266.644      104.44783     -17162.196      178.51633      180.87944      160.64529    
     59900  -17260.609      104.00842     -17156.6        178.49657      180.86224      160.70712    
     60000  -17256.366      106.36845     -17149.998      178.47535      180.8408       160.76896    
     60100  -17250.578      110.19331     -17140.385      178.45589      180.82345      160.83079    
     60200  -17236.599      106.56964     -17130.029      178.43191      180.8053       160.89262    
     60300  -17232.384      108.46602     -17123.918      178.41045      180.7896       160.95446    
     60400  -17227.978      106.51062     -17121.468      178.38993      180.76913      161.01629    
     60500  -17220.38       105.84082     -17114.539      178.37441      180.74746      161.07813    
     60600  -17212.863      105.44597     -17107.417      178.35696      180.72282      161.13996    
     60700  -17204.681      104.48148     -17100.199      178.34018      180.70431      161.20179    
     60800  -17200.049      105.1087      -17094.94       178.31708      180.6858       161.26363    
     60900  -17193.169      103.18229     -17089.987      178.29643      180.67015      161.32546    
     61000  -17187.128      104.62333     -17082.505      178.2766       180.65095      161.3873     
     61100  -17180.129      109.68717     -17070.442      178.25874      180.63131      161.44913    
     61200  -17173.053      111.58387     -17061.469      178.23807      180.61163      161.51097    
     61300  -17164.824      108.25356     -17056.57       178.21648      180.59848      161.5728     
     61400  -17156.683      105.33889     -17051.344      178.19126      180.58328      161.63463    
     61500  -17155.052      109.65308     -17045.399      178.17222      180.5672       161.69647    
     61600  -17145.172      106.26347     -17038.908      178.15459      180.54431      161.7583     
     61700  -17140.206      106.96276     -17033.244      178.14154      180.52335      161.82014    
     61800  -17132.793      103.33082     -17029.462      178.12187      180.50162      161.88197    
     61900  -17127.222      103.64451     -17023.577      178.10369      180.48697      161.94381    
     62000  -17118.527      106.40544     -17012.121      178.08276      180.46789      162.00564    
     62100  -17108.883      107.88521     -17000.998      178.06665      180.44834      162.06747    
     62200  -17103.511      109.45946     -16994.052      178.04956      180.42646      162.12931    
     62300  -17095.906      106.68738     -16989.218      178.03204      180.41012      162.19114    
     62400  -17090.768      107.42084     -16983.347      178.0076       180.39425      162.25298    
     62500  -17081.304      105.28345     -16976.021      177.98675      180.38281      162.31481    
     62600  -17076.514      108.3897      -16968.124      177.96482      180.36351      162.37664    
     62700  -17070.039      108.70985     -16961.329      177.95026      180.34564      162.43848    
     62800  -17062.506      106.82069     -16955.685      177.93214      180.32428      162.50031    
     62900  -17054.09       105.13603     -16948.954      177.91482      180.30852      162.56215    
     63000  -17044.744      104.49994     -16940.244      177.89244      180.29071      162.62398    
     63100  -17037.72       107.97028     -16929.75       177.87578      180.27513      162.68582    
     63200  -17029.762      109.36249     -16920.4        177.85851      180.252        162.74765    
     63300  -17024.653      107.86159     -16916.792      177.84523      180.23354      162.80948    
     63400  -17018.92       108.01981     -16910.901      177.82505      180.21422      162.87132    
     63500  -17009.05       105.61901     -16903.431      177.80597      180.20134      162.93315    
     63600  -17002.939      105.8633      -16897.075      177.78319      180.18422      162.99499    
     63700  -16997.063      106.58471     -16890.478      177.76751      180.1692       163.05682    
     63800  -16988.81       103.86135     -16884.949      177.74872      180.14721      163.11866    
     63900  -16982.976      104.9652      -16878.011      177.7333       180.13271      163.18049    
     64000  -16973.739      107.92419     -16865.814      177.71         180.11539      163.24232    
     64100  -16962.935      107.87151     -16855.063      177.69203      180.10186      163.30416    
     64200  -16958.027      109.28509     -16848.742      177.67372      180.08106      163.36599    
     64300  -16949.956      106.84109     -16843.115      177.66127      180.06162      163.42783    
     64400  -16942.378      106.28534     -16836.093      177.64395      180.04016      163.48966    
     64500  -16935.764      107.28128     -16828.483      177.62652      180.02473      163.55149    
     64600  -16929.457      107.44792     -16822.009      177.60659      180.0082       163.61333    
     64700  -16922.243      105.54158     -16816.701      177.58948      179.9917       163.67516    
     64800  -16913.441      103.95583     -16809.485      177.57203      179.97204      163.737      
     64900  -16905.287      107.36925     -16797.918      177.55579      179.95448      163.79883    
     65000  -16894.512      109.79007     -16784.722      177.53569      179.93825      163.86067    
     65100  -16889.232      110.55447     -16778.678      177.51544      179.92445      163.9225     
     65200  -16879.827      106.11184     -16773.715      177.49636      179.90788      163.98433    
     65300  -16874.545      106.97256     -16767.572      177.48048      179.88982      164.04617    
     65400  -16868.493      108.17267     -16760.321      177.46444      179.8698       164.108      
     65500  -16856.588      104.42512     -16752.162      177.44764      179.85248      164.16984    
     65600  -16851.163      106.68898     -16744.474      177.4282       179.83659      164.23167    
     65700  -16842.368      104.88141     -16737.486      177.41088      179.81986      164.29351    
     65800  -16835.079      105.47951     -16729.599      177.3955       179.7991       164.35534    
     65900  -16829.993      110.3592      -16719.634      177.38146      179.77982      164.41717    
     66000  -16814.253      106.59951     -16707.654      177.3621       179.76235      164.47901    
     66100  -16807.488      108.99459     -16698.494      177.34108      179.74932      164.54084    
     66200  -16799.918      105.78938     -16694.129      177.32123      179.73415      164.60268    
     66300  -16794.468      107.28889     -16687.18       177.30504      179.71557      164.66451    
     66400  -16786.668      107.98539     -16678.683      177.28891      179.69645      164.72634    
     66500  -16776.787      105.7775      -16671.009      177.2712       179.68085      164.78818    
     66600  -16771.249      106.39763     -16664.851      177.25074      179.66478      164.85001    
     66700  -16759.838      102.75438     -16657.084      177.23375      179.64866      164.91185    
     66800  -16754.06       108.07411     -16645.986      177.21758      179.62799      164.97368    
     66900  -16740.768      108.69036     -16632.078      177.20361      179.60825      165.03552    
     67000  -16734.626      110.71494     -16623.911      177.18589      179.58939      165.09735    
     67100  -16728.823      111.0603      -16617.763      177.16736      179.57421      165.15918    
     67200  -16717.626      106.89411     -16610.732      177.14803      179.55776      165.22102    
     67300  -16711.226      108.07444     -16603.152      177.13103      179.54014      165.28285    
     67400  -16702.81       107.76633     -16595.044      177.11404      179.52151      165.34469    
     67500  -16693.433      106.35637     -16587.077      177.09556      179.50539      165.40652    
     67600  -16686.104      105.19735     -16580.907      177.07424      179.49046      165.46836    
     67700  -16679.044      105.05845     -16573.985      177.05512      179.47596      165.53019    
     67800  -16668.344      106.34495     -16561.999      177.03686      179.45666      165.59202    
     67900  -16658.827      108.41101     -16550.416      177.02225      179.4375       165.65386    
     68000  -16648.18       108.16374     -16540.016      177.00397      179.41836      165.71569    
     68100  -16639.97       106.01522     -16533.955      176.9857       179.40369      165.77753    
     68200  -16632.188      106.85152     -16525.337      176.9663       179.38503      165.83936    
     68300  -16623.205      107.45639     -16515.749      176.95183      179.36666      165.90119    
     68400  -16612.364      105.7838      -16506.581      176.93424      179.34595      165.96303    
     68500  -16608.578      109.09479     -16499.483      176.9164       179.33061      166.02486    
[...]
     81600  -19731.882      104.89262     -19626.99       175.41822      177.68805      174.12515    
     81700  -19735.64       98.700385     -19636.94       175.4291       177.69445      174.18698    
     81800  -19736.58       104.38013     -19632.2        175.44412      177.69814      174.24881    
     81900  -19727.557      107.87907     -19619.678      175.46226      177.70155      174.31065    
     82000  -19722.297      112.3003      -19609.996      175.47496      177.70351      174.37248    
     82100  -19719.135      111.47234     -19607.663      175.48922      177.70982      174.43432    
     82200  -19722.126      107.47147     -19614.654      175.48978      177.71136      174.49615    
     82300  -19724.659      103.84287     -19620.816      175.49903      177.71666      174.55798    
     82400  -19723.006      102.34968     -19620.657      175.50996      177.71755      174.61982    
     82500  -19723.859      108.57205     -19615.287      175.52456      177.71576      174.68165    
     82600  -19721.575      110.31656     -19611.259      175.54295      177.71787      174.74349    
     82700  -19718.49       105.99757     -19612.492      175.55357      177.72346      174.80532    
     82800  -19721.842      104.94985     -19616.892      175.56147      177.73466      174.86716    
     82900  -19724.092      105.18374     -19618.908      175.56725      177.74173      174.92899    
     83000  -19722.982      105.16804     -19617.814      175.57899      177.75502      174.99082    
     83100  -19720.711      106.69189     -19614.019      175.592        177.76258      175.05266    
     83200  -19718.621      108.75763     -19609.863      175.61294      177.76772      175.11449    
     83300  -19716.123      107.54834     -19608.575      175.6299       177.76939      175.17633    
     83400  -19714.273      104.78303     -19609.49       175.6429       177.77398      175.23816    
     83500  -19719.241      109.00743     -19610.234      175.65157      177.77864      175.3        
     83600  -19723.223      109.05749     -19614.166      175.66016      177.78782      175.36183    
     83700  -19723.94       106.00528     -19617.935      175.66712      177.79246      175.42366    
     83800  -19722.694      104.83723     -19617.857      175.67978      177.79424      175.4855     
     83900  -19720.37       106.13236     -19614.238      175.6983       177.79682      175.54733    
     84000  -19719.637      108.57283     -19611.064      175.71844      177.79598      175.60917    
     84100  -19716.442      104.61266     -19611.829      175.73766      177.79812      175.671      
     84200  -19721.594      107.21335     -19614.381      175.75215      177.80049      175.73283    
     84300  -19722.836      105.90205     -19616.934      175.76462      177.81135      175.79467    
     84400  -19721.512      104.90186     -19616.61       175.77538      177.82454      175.8565     
     84500  -19719.815      105.98545     -19613.83       175.78954      177.83824      175.91834    
     84600  -19717.502      107.56947     -19609.933      175.80662      177.85206      175.98017    
     84700  -19716.872      109.2782      -19607.594      175.82207      177.86068      176.04201    
     84800  -19718.028      106.89371     -19611.134      175.83964      177.87057      176.10384    
     84900  -19719.692      104.3867      -19615.305      175.85566      177.87736      176.16567    
     85000  -19720.91       105.36031     -19615.55       175.87585      177.89035      176.22751    
     85100  -19721.767      108.54486     -19613.222      175.89619      177.89935      176.28934    
     85200  -19717.803      106.09293     -19611.71       175.91958      177.91249      176.35118    
     85300  -19719.354      108.13763     -19611.216      175.9375       177.92263      176.41301    
     85400  -19717.795      106.298       -19611.497      175.96003      177.93835      176.47485    
     85500  -19717.923      105.16011     -19612.763      175.97552      177.94908      176.53668    
     85600  -19719.352      106.52898     -19612.823      175.99903      177.96612      176.59851    
     85700  -19719.997      108.50562     -19611.491      176.01762      177.97785      176.66035    
     85800  -19718.563      107.27192     -19611.291      176.04433      177.99752      176.72218    
     85900  -19716.842      104.55336     -19612.289      176.05944      178.00745      176.78402    
     86000  -19719.679      106.58695     -19613.092      176.0797       178.02357      176.84585    
     86100  -19722.519      109.0071      -19613.512      176.1          178.03242      176.90768    
     86200  -19721.834      109.08877     -19612.745      176.12781      178.04804      176.96952    
     86300  -19717.224      104.77514     -19612.449      176.15148      178.06118      177.03135    
     86400  -19719.661      107.17953     -19612.482      176.17903      178.08121      177.09319    
     86500  -19720.372      107.90069     -19612.472      176.20041      178.09879      177.15502    
     86600  -19717.568      104.87328     -19612.694      176.22436      178.11696      177.21686    
     86700  -19717.533      105.77563     -19611.757      176.25011      178.13417      177.27869    
     86800  -19719.811      108.11188     -19611.699      176.28065      178.15058      177.34052    
     86900  -19720.49       107.20895     -19613.281      176.30881      178.16699      177.40236    
     87000  -19722.298      106.28875     -19616.009      176.33861      178.18362      177.46419    
     87100  -19721.427      104.70684     -19616.72       176.36835      178.20351      177.52603    
     87200  -19718.863      106.33342     -19612.53       176.39343      178.22197      177.58786    
     87300  -19717.127      109.49591     -19607.631      176.42024      178.24458      177.6497     
     87400  -19718.767      110.73462     -19608.032      176.44854      178.2658       177.71153    
     87500  -19720.157      106.65971     -19613.498      176.48238      178.29188      177.77336    
     87600  -19723.636      104.33013     -19619.306      176.51194      178.31077      177.8352     
     87700  -19722.905      104.16037     -19618.744      176.54827      178.33351      177.89703    
     87800  -19720.459      108.97243     -19611.487      176.57965      178.34901      177.95887    
     87900  -19713.743      108.69063     -19605.053      176.61744      178.37117      178.0207     
     88000  -19716.466      110.6058      -19605.86       176.64376      178.38817      178.08253    
     88100  -19718.32       105.78822     -19612.532      176.67683      178.4167       178.14437    
     88200  -19720.99       102.8389      -19618.151      176.70028      178.44263      178.2062     
     88300  -19724.044      106.37414     -19617.67       176.72404      178.47479      178.26804    
     88400  -19719.421      106.92554     -19612.495      176.74412      178.50196      178.32987    
     88500  -19718.207      110.78279     -19607.424      176.76967      178.53213      178.39171    
     88600  -19717.916      109.31334     -19608.603      176.79732      178.55549      178.45354    
     88700  -19719.88       105.58514     -19614.295      176.83283      178.58154      178.51537    
     88800  -19720.623      102.64068     -19617.982      176.86595      178.60362      178.57721    
     88900  -19723.795      106.91924     -19616.876      176.90227      178.63014      178.63904    
     89000  -19719.354      106.66024     -19612.694      176.93673      178.6557       178.70088    
     89100  -19718.947      109.47549     -19609.471      176.97518      178.68726      178.76271    
     89200  -19717.524      108.28432     -19609.24       177.01241      178.71741      178.82455    
     89300  -19719.822      108.39929     -19611.423      177.05474      178.74962      178.88638    
     89400  -19721.072      106.42162     -19614.65       177.09609      178.77936      178.94821    
     89500  -19722.143      106.29115     -19615.852      177.14444      178.8127       179.01005    
     89600  -19720.835      106.38592     -19614.449      177.19037      178.84355      179.07188    
     89700  -19718.721      106.85644     -19611.865      177.24156      178.87941      179.13372    
     89800  -19719.368      108.32788     -19611.041      177.28717      178.91079      179.19555    
     89900  -19718.974      105.78428     -19613.19       177.33495      178.94741      179.25738    
     90000  -19718.533      104.53911     -19613.994      177.37868      178.97967      179.31922    
     90100  -19720.131      107.24278     -19612.888      177.42774      179.01621      179.38105    
     90200  -19716.952      105.60131     -19611.351      177.47409      179.05037      179.44289    
     90300  -19719.304      109.60424     -19609.699      177.52197      179.08775      179.50472    
     90400  -19717.507      106.90053     -19610.607      177.56592      179.1211       179.56656    
     90500  -19716.83       105.07072     -19611.759      177.61026      179.15612      179.62839    
     90600  -19718.488      105.63569     -19612.853      177.65291      179.18964      179.69022    
     90700  -19721.628      107.82268     -19613.806      177.6989       179.22643      179.75206    
     90800  -19721.417      107.5254      -19613.892      177.74479      179.26241      179.81389    
     90900  -19718.809      106.01978     -19612.79       177.79176      179.30197      179.87573    
     91000  -19719.866      109.1506      -19610.715      177.83724      179.34319      179.93756    
     91100  -19715.927      106.46086     -19609.466      177.88474      179.38728      179.9994     
     91200  -19717.267      106.26481     -19611.002      177.93178      179.4332       180.06123    
     91300  -19720.989      108.04349     -19612.946      177.9816       179.48258      180.12306    
     91400  -19718.641      104.42034     -19614.221      178.03295      179.52904      180.1849     
     91500  -19719.2        105.83469     -19613.365      178.09246      179.57836      180.24673    
     91600  -19717.948      107.39148     -19610.557      178.14633      179.62207      180.30857    
     91700  -19717.473      109.3759      -19608.097      178.2032       179.6699       180.3704     
     91800  -19715.511      106.88712     -19608.624      178.25516      179.71525      180.43223    
     91900  -19717.855      106.03098     -19611.824      178.30966      179.76342      180.49407    
     92000  -19718.769      104.31991     -19614.449      178.36038      179.80792      180.5559     
     92100  -19718.013      104.07533     -19613.937      178.41649      179.85526      180.61774    
     92200  -19717.228      106.37497     -19610.853      178.47132      179.8966       180.67957    
     92300  -19716.604      108.68804     -19607.916      178.53126      179.93929      180.74141    
     92400  -19718.769      110.3027      -19608.467      178.58512      179.97744      180.80324    
     92500  -19717.927      105.76104     -19612.166      178.64152      180.01792      180.86507    
     92600  -19719.441      104.22144     -19615.22       178.69579      180.05706      180.92691    
     92700  -19719.676      105.18104     -19614.495      178.75125      180.10169      180.98874    
     92800  -19717.411      107.00427     -19610.407      178.80274      180.14148      181.05058    
     92900  -19717.202      110.24341     -19606.959      178.86106      180.18697      181.11241    
     93000  -19715.366      107.69416     -19607.671      178.91716      180.23452      181.17425    
     93100  -19716.935      106.4618      -19610.473      178.97562      180.28647      181.23608    
     93200  -19716.875      104.6316      -19612.243      179.03526      180.34073      181.29791    
     93300  -19718.915      106.50202     -19612.413      179.09572      180.3962       181.35975    
     93400  -19717.477      105.66572     -19611.812      179.15732      180.45404      181.42158    
     93500  -19717.649      106.46541     -19611.184      179.21993      180.51052      181.48342    
     93600  -19719.252      108.17125     -19611.081      179.28226      180.56767      181.54525    
     93700  -19716.17       104.78088     -19611.389      179.34574      180.62698      181.60709    
     93800  -19718.198      107.30152     -19610.897      179.40584      180.68139      181.66892    
     93900  -19717.696      107.33431     -19610.361      179.4704       180.73974      181.73075    
     94000  -19718.193      106.8377      -19611.356      179.52949      180.7967       181.79259    
     94100  -19718.611      105.95359     -19612.657      179.58982      180.85501      181.85442    
     94200  -19720.564      107.87713     -19612.687      179.64794      180.91106      181.91626    
     94300  -19717.281      106.40493     -19610.876      179.71135      180.9706       181.97809    
     94400  -19715.753      107.17979     -19608.573      179.77215      181.02474      182.03992    
     94500  -19717.254      108.54171     -19608.712      179.83622      181.08122      182.10176    
     94600  -19718.522      107.60332     -19610.919      179.89739      181.13409      182.16359    
     94700  -19717.459      105.20154     -19612.258      179.95935      181.18708      182.22543    
     94800  -19718.19       106.16257     -19612.027      180.01874      181.23675      182.28726    
     94900  -19716.146      105.95992     -19610.187      180.08215      181.28905      182.3491     
     95000  -19713.858      105.99705     -19607.861      180.14419      181.34081      182.41093    
     95100  -19715.564      108.11779     -19607.447      180.20728      181.39112      182.47276    
     95200  -19717.33       107.21079     -19610.119      180.27144      181.44588      182.5346     
     95300  -19718.193      105.01559     -19613.178      180.33309      181.49827      182.59643    
     95400  -19719.117      105.94877     -19613.168      180.39393      181.55261      182.65827    
     95500  -19717.041      106.23562     -19610.805      180.45315      181.6084       182.7201     
     95600  -19716.635      108.55943     -19608.075      180.51188      181.66338      182.78194    
     95700  -19715.126      108.40938     -19606.717      180.56855      181.71549      182.84377    
     95800  -19714.825      106.3735      -19608.451      180.62669      181.768        182.9056     
     95900  -19717.953      106.55203     -19611.401      180.68524      181.82008      182.96744    
     96000  -19717.98       105.38219     -19612.598      180.74184      181.87151      183.02927    
     96100  -19718.471      107.12206     -19611.349      180.79676      181.92361      183.09111    
     96200  -19716.041      106.55904     -19609.481      180.85079      181.97724      183.15294    
     96300  -19717.104      109.61415     -19607.49       180.90558      182.03083      183.21477    
     96400  -19720.209      109.655       -19610.554      180.95793      182.08294      183.27661    
     96500  -19721.828      104.93629     -19616.891      181.01194      182.13544      183.33844    
     96600  -19722.41       102.35131     -19620.059      181.06601      182.18732      183.40028    
     96700  -19721.258      104.50123     -19616.757      181.12019      182.2365       183.46211    
     96800  -19718.929      108.30838     -19610.621      181.17539      182.28724      183.52395    
     96900  -19717.625      109.9094      -19607.716      181.22983      182.33447      183.58578    
     97000  -19718.114      107.70335     -19610.41       181.28486      182.38395      183.64761    
     97100  -19720.892      104.61064     -19616.281      181.33495      182.43087      183.70945    
     97200  -19724.447      104.43034     -19620.017      181.38808      182.47967      183.77128    
     97300  -19722.465      104.90958     -19617.555      181.43857      182.52622      183.83312    
     97400  -19718.843      107.92664     -19610.916      181.4914       182.57382      183.89495    
     97500  -19716.902      109.92257     -19606.979      181.54186      182.61965      183.95679    
     97600  -19720.621      110.94292     -19609.678      181.59295      182.66694      184.01862    
     97700  -19720.651      104.42768     -19616.224      181.64261      182.71523      184.08045    
     97800  -19723.578      103.58887     -19619.989      181.69348      182.76455      184.14229    
     97900  -19719.551      102.04031     -19617.511      181.74126      182.81006      184.20412    
     98000  -19719.813      109.12736     -19610.686      181.79087      182.85807      184.26596    
     98100  -19718.944      112.75574     -19606.188      181.83831      182.90099      184.32779    
     98200  -19717.25       109.1425      -19608.107      181.8881       182.94601      184.38962    
     98300  -19721.648      107.03267     -19614.615      181.9319       182.98877      184.45146    
     98400  -19723.111      103.3021      -19619.809      181.97921      183.036        184.51329    
     98500  -19724.811      105.49984     -19619.311      182.02402      183.08045      184.57513    
     98600  -19719.933      106.72733     -19613.206      182.06884      183.12656      184.63696    
     98700  -19717.842      110.4551      -19607.386      182.11484      183.16985      184.6988     
     98800  -19718.556      110.95246     -19607.604      182.16157      183.21155      184.76063    
     98900  -19722.153      108.45797     -19613.695      182.2063       183.25336      184.82246    
     99000  -19721.75       102.21042     -19619.539      182.24906      183.29669      184.8843     
     99100  -19722.834      103.58735     -19619.247      182.29289      183.34124      184.94613    
     99200  -19719.958      106.06659     -19613.892      182.33329      183.38657      185.00797    
     99300  -19717.288      109.15937     -19608.129      182.37387      183.43159      185.0698     
     99400  -19718.497      110.62604     -19607.871      182.41184      183.47354      185.13164    
     99500  -19720.108      106.72752     -19613.381      182.45406      183.51427      185.19347    
     99600  -19720.719      102.05791     -19618.661      182.49792      183.55363      185.2553     
     99700  -19724.129      105.32256     -19618.807      182.54252      183.59115      185.31714    
     99800  -19719.187      105.73157     -19613.456      182.58522      183.62877      185.37897    
     99900  -19715.463      108.00583     -19607.457      182.62493      183.66765      185.44081    
    100000  -19717.647      109.57586     -19608.071      182.66311      183.70543      185.50264    
Loop time of 1431.1 on 12 procs for 100000 steps with 2760 atoms

Performance: 6.037 ns/day, 3.975 hours/ns, 69.876 timesteps/s, 192.859 katom-step/s
96.3% CPU use with 12 MPI tasks x 1 OpenMP threads

MPI task timing breakdown:
Section |  min time  |  avg time  |  max time  |%varavg| %total
---------------------------------------------------------------
Pair    | 0.051078   | 381.51     | 1374.5     |2818.1 | 26.66
Neigh   | 0.0037682  | 1.5349     | 6.2097     | 182.3 |  0.11
Comm    | 0.1092     | 90.855     | 552.9      |1710.4 |  6.35
Output  | 0.34785    | 0.36589    | 0.38741    |   2.2 |  0.03
Modify  | 20.756     | 954.55     | 1427.8     |2136.2 | 66.70
Other   |            | 2.278      |            |       |  0.16

Nlocal:            230 ave        1107 max           0 min
Histogram: 8 0 0 1 0 1 1 0 0 1
Nghost:        323.333 ave        1449 max           0 min
Histogram: 8 0 0 0 1 1 1 0 0 1
Neighs:              0 ave           0 max           0 min
Histogram: 12 0 0 0 0 0 0 0 0 0

Total # of neighbors = 0
Ave neighs/atom = 0
Neighbor list builds = 570
Dangerous builds = 0
Total wall time: 0:23:51
