LAMMPS data file via write_data, version 2 Aug 2023, timestep = 0, units = metal

2352 atoms
2 atom types

-100 100 xlo xhi
-100 100 ylo yhi
-2.3312511101 121.3371765505 zlo zhi

Masses

1 12.0107
2 12.0107

Atoms # atomic

6 1 -1.384062 -5.165391 0 0 0 0
7 1 -3.781329 -3.781329 0 0 0 0
8 1 -4.631163 -2.673803 0 0 0 0
21 1 -2.04644 -4.940544 1.212436 0 0 0
22 1 -3.255416 -4.242541 1.212436 0 0 0
23 1 -4.940544 -2.04644 1.212436 0 0 0
24 1 -5.301857 -0.698003 1.212436 0 0 0
36 1 -1.384062 -5.165391 2.424871 0 0 0
37 1 -3.781329 -3.781329 2.424871 0 0 0
38 1 -4.631163 -2.673803 2.424871 0 0 0
51 1 -2.04644 -4.940544 3.637307 0 0 0
52 1 -3.255416 -4.242541 3.637307 0 0 0
53 1 -4.940544 -2.04644 3.637307 0 0 0
54 1 -5.301857 -0.698003 3.637307 0 0 0
66 1 -1.384062 -5.165391 4.849742 0 0 0
67 1 -3.781329 -3.781329 4.849742 0 0 0
68 1 -4.631163 -2.673803 4.849742 0 0 0
81 1 -2.04644 -4.940544 6.062178 0 0 0
82 1 -3.255416 -4.242541 6.062178 0 0 0
83 1 -4.940544 -2.04644 6.062178 0 0 0
84 1 -5.301857 -0.698003 6.062178 0 0 0
97 1 -3.781329 -3.781329 7.274613 0 0 0
98 1 -4.631163 -2.673803 7.274613 0 0 0
112 1 -1.384062 -5.165391 7.274613 0 0 0
113 1 -4.940544 -2.04644 8.487049 0 0 0
114 1 -5.301857 -0.698003 8.487049 0 0 0
127 1 -2.04644 -4.940544 8.487049 0 0 0
128 1 -3.255416 -4.242541 8.487049 0 0 0
142 1 -1.384062 -5.165391 9.699485 0 0 0
143 1 -3.781329 -3.781329 9.699485 0 0 0
144 1 -4.631163 -2.673803 9.699485 0 0 0
157 1 -2.04644 -4.940544 10.91192 0 0 0
158 1 -3.255416 -4.242541 10.91192 0 0 0
159 1 -4.940544 -2.04644 10.91192 0 0 0
160 1 -5.301857 -0.698003 10.91192 0 0 0
172 1 -1.384062 -5.165391 12.124356 0 0 0
173 1 -3.781329 -3.781329 12.124356 0 0 0
174 1 -4.631163 -2.673803 12.124356 0 0 0
187 1 -2.04644 -4.940544 13.336791 0 0 0
188 1 -3.255416 -4.242541 13.336791 0 0 0
189 1 -4.940544 -2.04644 13.336791 0 0 0
190 1 -5.301857 -0.698003 13.336791 0 0 0
202 1 -1.384062 -5.165391 14.549227 0 0 0
203 1 -3.781329 -3.781329 14.549227 0 0 0
204 1 -4.631163 -2.673803 14.549227 0 0 0
217 1 -2.04644 -4.940544 15.761662 0 0 0
218 1 -3.255416 -4.242541 15.761662 0 0 0
219 1 -4.940544 -2.04644 15.761662 0 0 0
220 1 -5.301857 -0.698003 15.761662 0 0 0
232 1 -1.384062 -5.165391 16.974098 0 0 0
233 1 -3.781329 -3.781329 16.974098 0 0 0
234 1 -4.631163 -2.673803 16.974098 0 0 0
247 1 -2.04644 -4.940544 18.186533 0 0 0
248 1 -3.255416 -4.242541 18.186533 0 0 0
249 1 -4.940544 -2.04644 18.186533 0 0 0
250 1 -5.301857 -0.698003 18.186533 0 0 0
262 1 -1.384062 -5.165391 19.398969 0 0 0
263 1 -3.781329 -3.781329 19.398969 0 0 0
264 1 -4.631163 -2.673803 19.398969 0 0 0
277 1 -2.04644 -4.940544 20.611405 0 0 0
278 1 -3.255416 -4.242541 20.611405 0 0 0
279 1 -4.940544 -2.04644 20.611405 0 0 0
280 1 -5.301857 -0.698003 20.611405 0 0 0
292 1 -1.384062 -5.165391 21.82384 0 0 0
293 1 -3.781329 -3.781329 21.82384 0 0 0
294 1 -4.631163 -2.673803 21.82384 0 0 0
307 1 -2.04644 -4.940544 23.036276 0 0 0
308 1 -3.255416 -4.242541 23.036276 0 0 0
309 1 -4.940544 -2.04644 23.036276 0 0 0
310 1 -5.301857 -0.698003 23.036276 0 0 0
322 1 -1.384062 -5.165391 24.248711 0 0 0
323 1 -3.781329 -3.781329 24.248711 0 0 0
324 1 -4.631163 -2.673803 24.248711 0 0 0
337 1 -2.04644 -4.940544 25.461147 0 0 0
338 1 -3.255416 -4.242541 25.461147 0 0 0
339 1 -4.940544 -2.04644 25.461147 0 0 0
340 1 -5.301857 -0.698003 25.461147 0 0 0
353 1 -3.781329 -3.781329 26.673582 0 0 0
354 1 -4.631163 -2.673803 26.673582 0 0 0
368 1 -1.384062 -5.165391 26.673582 0 0 0
369 1 -4.940544 -2.04644 27.886018 0 0 0
370 1 -5.301857 -0.698003 27.886018 0 0 0
383 1 -2.04644 -4.940544 27.886018 0 0 0
384 1 -3.255416 -4.242541 27.886018 0 0 0
398 1 -1.384062 -5.165391 29.098454 0 0 0
399 1 -3.781329 -3.781329 29.098454 0 0 0
400 1 -4.631163 -2.673803 29.098454 0 0 0
413 1 -2.04644 -4.940544 30.310889 0 0 0
414 1 -3.255416 -4.242541 30.310889 0 0 0
415 1 -4.940544 -2.04644 30.310889 0 0 0
416 1 -5.301857 -0.698003 30.310889 0 0 0
428 1 -1.384062 -5.165391 31.523325 0 0 0
429 1 -3.781329 -3.781329 31.523325 0 0 0
430 1 -4.631163 -2.673803 31.523325 0 0 0
443 1 -2.04644 -4.940544 32.73576 0 0 0
444 1 -3.255416 -4.242541 32.73576 0 0 0
445 1 -4.940544 -2.04644 32.73576 0 0 0
446 1 -5.301857 -0.698003 32.73576 0 0 0
458 1 -1.384062 -5.165391 33.948196 0 0 0
459 1 -3.781329 -3.781329 33.948196 0 0 0
460 1 -4.631163 -2.673803 33.948196 0 0 0
473 1 -2.04644 -4.940544 35.160631 0 0 0
474 1 -3.255416 -4.242541 35.160631 0 0 0
475 1 -4.940544 -2.04644 35.160631 0 0 0
476 1 -5.301857 -0.698003 35.160631 0 0 0
488 1 -1.384062 -5.165391 36.373067 0 0 0
489 1 -3.781329 -3.781329 36.373067 0 0 0
490 1 -4.631163 -2.673803 36.373067 0 0 0
503 1 -2.04644 -4.940544 37.585503 0 0 0
504 1 -3.255416 -4.242541 37.585503 0 0 0
505 1 -4.940544 -2.04644 37.585503 0 0 0
506 1 -5.301857 -0.698003 37.585503 0 0 0
518 1 -1.384062 -5.165391 38.797938 0 0 0
519 1 -3.781329 -3.781329 38.797938 0 0 0
520 1 -4.631163 -2.673803 38.797938 0 0 0
533 1 -2.04644 -4.940544 40.010374 0 0 0
534 1 -3.255416 -4.242541 40.010374 0 0 0
535 1 -4.940544 -2.04644 40.010374 0 0 0
536 1 -5.301857 -0.698003 40.010374 0 0 0
561 2 -2.088038 -0.828285 2.603933 0 0 0
563 2 -0.842638 -1.030985 3.182233 0 0 0
569 2 -0.488538 -2.919085 1.744933 0 0 0
570 2 -1.740738 -2.718185 1.172133 0 0 0
571 2 -0.037038 -2.074185 2.753733 0 0 0
572 2 -2.546338 -1.670785 1.602633 0 0 0
573 2 -3.257938 -0.919885 0.678533 0 0 0
574 2 -1.652038 -3.011885 -0.181267 0 0 0
575 2 -2.351938 -2.249685 -1.108567 0 0 0
576 2 -3.162038 -1.200685 -0.679367 0 0 0
581 2 -0.341738 -3.396185 -0.450967 0 0 0
586 2 -1.745738 -1.875185 -2.299867 0 0 0
591 2 -3.063338 -0.168685 -1.602267 0 0 0
621 2 -2.088038 -0.828285 12.900333 0 0 0
623 2 -0.842638 -1.030985 13.478633 0 0 0
629 2 -0.488538 -2.919085 12.041333 0 0 0
630 2 -1.740738 -2.718185 11.468533 0 0 0
631 2 -0.037038 -2.074185 13.050133 0 0 0
632 2 -2.546338 -1.670785 11.899033 0 0 0
633 2 -3.257938 -0.919885 10.974933 0 0 0
634 2 -1.652038 -3.011885 10.115133 0 0 0
635 2 -2.351938 -2.249685 9.187833 0 0 0
636 2 -3.162038 -1.200685 9.617033 0 0 0
641 2 -0.341738 -3.396185 9.845433 0 0 0
645 2 -2.180538 -0.584085 7.706933 0 0 0
646 2 -1.745738 -1.875185 7.996533 0 0 0
647 2 -0.436238 -2.252685 7.720333 0 0 0
651 2 -3.063338 -0.168685 8.694133 0 0 0
681 2 -2.088038 -0.828285 23.196733 0 0 0
683 2 -0.842638 -1.030985 23.775033 0 0 0
689 2 -0.488538 -2.919085 22.337733 0 0 0
690 2 -1.740738 -2.718185 21.764933 0 0 0
691 2 -0.037038 -2.074185 23.346533 0 0 0
692 2 -2.546338 -1.670785 22.195433 0 0 0
693 2 -3.257938 -0.919885 21.271333 0 0 0
694 2 -1.652038 -3.011885 20.411533 0 0 0
695 2 -2.351938 -2.249685 19.484233 0 0 0
696 2 -3.162038 -1.200685 19.913433 0 0 0
701 2 -0.341738 -3.396185 20.141833 0 0 0
705 2 -2.180538 -0.584085 18.003333 0 0 0
706 2 -1.745738 -1.875185 18.292933 0 0 0
707 2 -0.436238 -2.252685 18.016733 0 0 0
711 2 -3.063338 -0.168685 18.990533 0 0 0
741 2 -2.088038 -0.828285 33.493133 0 0 0
743 2 -0.842638 -1.030985 34.071433 0 0 0
749 2 -0.488538 -2.919085 32.634133 0 0 0
750 2 -1.740738 -2.718185 32.061333 0 0 0
751 2 -0.037038 -2.074185 33.642933 0 0 0
752 2 -2.546338 -1.670785 32.491833 0 0 0
753 2 -3.257938 -0.919885 31.567733 0 0 0
754 2 -1.652038 -3.011885 30.707933 0 0 0
755 2 -2.351938 -2.249685 29.780633 0 0 0
756 2 -3.162038 -1.200685 30.209833 0 0 0
761 2 -0.341738 -3.396185 30.438233 0 0 0
765 2 -2.180538 -0.584085 28.299733 0 0 0
766 2 -1.745738 -1.875185 28.589333 0 0 0
767 2 -0.436238 -2.252685 28.313133 0 0 0
771 2 -3.063338 -0.168685 29.286933 0 0 0
790 1 -1.384062 -5.165391 41.2228092202 0 0 0
791 1 -3.781329 -3.781329 41.2228092202 0 0 0
792 1 -4.631163 -2.673803 41.2228092202 0 0 0
805 1 -2.04644 -4.940544 42.435245220199995 0 0 0
806 1 -3.255416 -4.242541 42.435245220199995 0 0 0
807 1 -4.940544 -2.04644 42.435245220199995 0 0 0
808 1 -5.301857 -0.698003 42.435245220199995 0 0 0
820 1 -1.384062 -5.165391 43.6476802202 0 0 0
821 1 -3.781329 -3.781329 43.6476802202 0 0 0
822 1 -4.631163 -2.673803 43.6476802202 0 0 0
835 1 -2.04644 -4.940544 44.8601162202 0 0 0
836 1 -3.255416 -4.242541 44.8601162202 0 0 0
837 1 -4.940544 -2.04644 44.8601162202 0 0 0
838 1 -5.301857 -0.698003 44.8601162202 0 0 0
850 1 -1.384062 -5.165391 46.0725512202 0 0 0
851 1 -3.781329 -3.781329 46.0725512202 0 0 0
852 1 -4.631163 -2.673803 46.0725512202 0 0 0
865 1 -2.04644 -4.940544 47.2849872202 0 0 0
866 1 -3.255416 -4.242541 47.2849872202 0 0 0
867 1 -4.940544 -2.04644 47.2849872202 0 0 0
868 1 -5.301857 -0.698003 47.2849872202 0 0 0
881 1 -3.781329 -3.781329 48.4974222202 0 0 0
882 1 -4.631163 -2.673803 48.4974222202 0 0 0
896 1 -1.384062 -5.165391 48.4974222202 0 0 0
897 1 -4.940544 -2.04644 49.7098582202 0 0 0
898 1 -5.301857 -0.698003 49.7098582202 0 0 0
911 1 -2.04644 -4.940544 49.7098582202 0 0 0
912 1 -3.255416 -4.242541 49.7098582202 0 0 0
926 1 -1.384062 -5.165391 50.9222942202 0 0 0
927 1 -3.781329 -3.781329 50.9222942202 0 0 0
928 1 -4.631163 -2.673803 50.9222942202 0 0 0
941 1 -2.04644 -4.940544 52.1347292202 0 0 0
942 1 -3.255416 -4.242541 52.1347292202 0 0 0
943 1 -4.940544 -2.04644 52.1347292202 0 0 0
944 1 -5.301857 -0.698003 52.1347292202 0 0 0
956 1 -1.384062 -5.165391 53.3471652202 0 0 0
957 1 -3.781329 -3.781329 53.3471652202 0 0 0
958 1 -4.631163 -2.673803 53.3471652202 0 0 0
971 1 -2.04644 -4.940544 54.5596002202 0 0 0
972 1 -3.255416 -4.242541 54.5596002202 0 0 0
973 1 -4.940544 -2.04644 54.5596002202 0 0 0
974 1 -5.301857 -0.698003 54.5596002202 0 0 0
986 1 -1.384062 -5.165391 55.7720362202 0 0 0
987 1 -3.781329 -3.781329 55.7720362202 0 0 0
988 1 -4.631163 -2.673803 55.7720362202 0 0 0
1001 1 -2.04644 -4.940544 56.9844712202 0 0 0
1002 1 -3.255416 -4.242541 56.9844712202 0 0 0
1003 1 -4.940544 -2.04644 56.9844712202 0 0 0
1004 1 -5.301857 -0.698003 56.9844712202 0 0 0
1016 1 -1.384062 -5.165391 58.1969072202 0 0 0
1017 1 -3.781329 -3.781329 58.1969072202 0 0 0
1018 1 -4.631163 -2.673803 58.1969072202 0 0 0
1031 1 -2.04644 -4.940544 59.4093422202 0 0 0
1032 1 -3.255416 -4.242541 59.4093422202 0 0 0
1033 1 -4.940544 -2.04644 59.4093422202 0 0 0
1034 1 -5.301857 -0.698003 59.4093422202 0 0 0
1345 2 -2.088038 -0.828285 43.826742220199996 0 0 0
1347 2 -0.842638 -1.030985 44.4050422202 0 0 0
1353 2 -0.488538 -2.919085 42.9677422202 0 0 0
1354 2 -1.740738 -2.718185 42.3949422202 0 0 0
1355 2 -0.037038 -2.074185 43.976542220199995 0 0 0
1356 2 -2.546338 -1.670785 42.825442220199996 0 0 0
1357 2 -3.257938 -0.919885 41.9013422202 0 0 0
1358 2 -1.652038 -3.011885 41.0415422202 0 0 0
1359 2 -2.351938 -2.249685 40.1142422202 0 0 0
1360 2 -3.162038 -1.200685 40.5434422202 0 0 0
1365 2 -0.341738 -3.396185 40.7718422202 0 0 0
1369 2 -2.180538 -0.584085 38.6333422202 0 0 0
1370 2 -1.745738 -1.875185 38.9229422202 0 0 0
1371 2 -0.436238 -2.252685 38.6467422202 0 0 0
1375 2 -3.063338 -0.168685 39.6205422202 0 0 0
1405 2 -2.088038 -0.828285 54.123142220199995 0 0 0
1407 2 -0.842638 -1.030985 54.7014422202 0 0 0
1413 2 -0.488538 -2.919085 53.2641422202 0 0 0
1414 2 -1.740738 -2.718185 52.6913422202 0 0 0
1415 2 -0.037038 -2.074185 54.2729422202 0 0 0
1416 2 -2.546338 -1.670785 53.121842220199994 0 0 0
1417 2 -3.257938 -0.919885 52.1977422202 0 0 0
1418 2 -1.652038 -3.011885 51.3379422202 0 0 0
1419 2 -2.351938 -2.249685 50.410642220199996 0 0 0
1420 2 -3.162038 -1.200685 50.8398422202 0 0 0
1425 2 -0.341738 -3.396185 51.0682422202 0 0 0
1429 2 -2.180538 -0.584085 48.9297422202 0 0 0
1430 2 -1.745738 -1.875185 49.2193422202 0 0 0
1431 2 -0.436238 -2.252685 48.9431422202 0 0 0
1435 2 -3.063338 -0.168685 49.9169422202 0 0 0
1489 2 -2.180538 -0.584085 59.2261422202 0 0 0
1491 2 -0.436238 -2.252685 59.23954222019999 0 0 0
2101 1 -2.04644 -4.940544 -1.2124352202000068 0 0 1
2102 1 -3.255416 -4.242541 -1.2124352202000068 0 0 1
2103 1 -4.940544 -2.04644 -1.2124352202000068 0 0 1
2104 1 -5.301857 -0.698003 -1.2124352202000068 0 0 1
9 1 -5.347606 0 0 0 0 0
10 1 -5.165391 1.384062 0 0 0 0
11 1 -3.781329 3.781329 0 0 0 0
12 1 -2.673803 4.631163 0 0 0 0
25 1 -4.940544 2.04644 1.212436 0 0 0
26 1 -4.242541 3.255416 1.212436 0 0 0
27 1 -2.04644 4.940544 1.212436 0 0 0
28 1 -0.698003 5.301857 1.212436 0 0 0
39 1 -5.347606 0 2.424871 0 0 0
40 1 -5.165391 1.384062 2.424871 0 0 0
41 1 -3.781329 3.781329 2.424871 0 0 0
42 1 -2.673803 4.631163 2.424871 0 0 0
55 1 -4.940544 2.04644 3.637307 0 0 0
56 1 -4.242541 3.255416 3.637307 0 0 0
57 1 -2.04644 4.940544 3.637307 0 0 0
58 1 -0.698003 5.301857 3.637307 0 0 0
69 1 -5.347606 0 4.849742 0 0 0
70 1 -5.165391 1.384062 4.849742 0 0 0
71 1 -3.781329 3.781329 4.849742 0 0 0
72 1 -2.673803 4.631163 4.849742 0 0 0
85 1 -4.940544 2.04644 6.062178 0 0 0
86 1 -4.242541 3.255416 6.062178 0 0 0
87 1 -2.04644 4.940544 6.062178 0 0 0
88 1 -0.698003 5.301857 6.062178 0 0 0
99 1 -5.347606 0 7.274613 0 0 0
100 1 -5.165391 1.384062 7.274613 0 0 0
101 1 -3.781329 3.781329 7.274613 0 0 0
102 1 -2.673803 4.631163 7.274613 0 0 0
115 1 -4.940544 2.04644 8.487049 0 0 0
116 1 -4.242541 3.255416 8.487049 0 0 0
117 1 -2.04644 4.940544 8.487049 0 0 0
118 1 -0.698003 5.301857 8.487049 0 0 0
129 1 -5.347606 0 9.699485 0 0 0
130 1 -5.165391 1.384062 9.699485 0 0 0
131 1 -3.781329 3.781329 9.699485 0 0 0
132 1 -2.673803 4.631163 9.699485 0 0 0
145 1 -4.940544 2.04644 10.91192 0 0 0
146 1 -4.242541 3.255416 10.91192 0 0 0
147 1 -2.04644 4.940544 10.91192 0 0 0
148 1 -0.698003 5.301857 10.91192 0 0 0
161 1 -3.781329 3.781329 12.124356 0 0 0
162 1 -2.673803 4.631163 12.124356 0 0 0
175 1 -5.347606 0 12.124356 0 0 0
176 1 -5.165391 1.384062 12.124356 0 0 0
177 1 -2.04644 4.940544 13.336791 0 0 0
178 1 -0.698003 5.301857 13.336791 0 0 0
191 1 -4.940544 2.04644 13.336791 0 0 0
192 1 -4.242541 3.255416 13.336791 0 0 0
205 1 -5.347606 0 14.549227 0 0 0
206 1 -5.165391 1.384062 14.549227 0 0 0
207 1 -3.781329 3.781329 14.549227 0 0 0
208 1 -2.673803 4.631163 14.549227 0 0 0
221 1 -4.940544 2.04644 15.761662 0 0 0
222 1 -4.242541 3.255416 15.761662 0 0 0
223 1 -2.04644 4.940544 15.761662 0 0 0
224 1 -0.698003 5.301857 15.761662 0 0 0
235 1 -5.347606 0 16.974098 0 0 0
236 1 -5.165391 1.384062 16.974098 0 0 0
237 1 -3.781329 3.781329 16.974098 0 0 0
238 1 -2.673803 4.631163 16.974098 0 0 0
251 1 -4.940544 2.04644 18.186533 0 0 0
252 1 -4.242541 3.255416 18.186533 0 0 0
253 1 -2.04644 4.940544 18.186533 0 0 0
254 1 -0.698003 5.301857 18.186533 0 0 0
265 1 -5.347606 0 19.398969 0 0 0
266 1 -5.165391 1.384062 19.398969 0 0 0
267 1 -3.781329 3.781329 19.398969 0 0 0
268 1 -2.673803 4.631163 19.398969 0 0 0
281 1 -4.940544 2.04644 20.611405 0 0 0
282 1 -4.242541 3.255416 20.611405 0 0 0
283 1 -2.04644 4.940544 20.611405 0 0 0
284 1 -0.698003 5.301857 20.611405 0 0 0
295 1 -5.347606 0 21.82384 0 0 0
296 1 -5.165391 1.384062 21.82384 0 0 0
297 1 -3.781329 3.781329 21.82384 0 0 0
298 1 -2.673803 4.631163 21.82384 0 0 0
311 1 -4.940544 2.04644 23.036276 0 0 0
312 1 -4.242541 3.255416 23.036276 0 0 0
313 1 -2.04644 4.940544 23.036276 0 0 0
314 1 -0.698003 5.301857 23.036276 0 0 0
325 1 -5.347606 0 24.248711 0 0 0
326 1 -5.165391 1.384062 24.248711 0 0 0
327 1 -3.781329 3.781329 24.248711 0 0 0
328 1 -2.673803 4.631163 24.248711 0 0 0
341 1 -4.940544 2.04644 25.461147 0 0 0
342 1 -4.242541 3.255416 25.461147 0 0 0
343 1 -2.04644 4.940544 25.461147 0 0 0
344 1 -0.698003 5.301857 25.461147 0 0 0
355 1 -5.347606 0 26.673582 0 0 0
356 1 -5.165391 1.384062 26.673582 0 0 0
357 1 -3.781329 3.781329 26.673582 0 0 0
358 1 -2.673803 4.631163 26.673582 0 0 0
371 1 -4.940544 2.04644 27.886018 0 0 0
372 1 -4.242541 3.255416 27.886018 0 0 0
373 1 -2.04644 4.940544 27.886018 0 0 0
374 1 -0.698003 5.301857 27.886018 0 0 0
385 1 -5.347606 0 29.098454 0 0 0
386 1 -5.165391 1.384062 29.098454 0 0 0
387 1 -3.781329 3.781329 29.098454 0 0 0
388 1 -2.673803 4.631163 29.098454 0 0 0
401 1 -4.940544 2.04644 30.310889 0 0 0
402 1 -4.242541 3.255416 30.310889 0 0 0
403 1 -2.04644 4.940544 30.310889 0 0 0
404 1 -0.698003 5.301857 30.310889 0 0 0
417 1 -3.781329 3.781329 31.523325 0 0 0
418 1 -2.673803 4.631163 31.523325 0 0 0
431 1 -5.347606 0 31.523325 0 0 0
432 1 -5.165391 1.384062 31.523325 0 0 0
433 1 -2.04644 4.940544 32.73576 0 0 0
434 1 -0.698003 5.301857 32.73576 0 0 0
447 1 -4.940544 2.04644 32.73576 0 0 0
448 1 -4.242541 3.255416 32.73576 0 0 0
461 1 -5.347606 0 33.948196 0 0 0
462 1 -5.165391 1.384062 33.948196 0 0 0
463 1 -3.781329 3.781329 33.948196 0 0 0
464 1 -2.673803 4.631163 33.948196 0 0 0
477 1 -4.940544 2.04644 35.160631 0 0 0
478 1 -4.242541 3.255416 35.160631 0 0 0
479 1 -2.04644 4.940544 35.160631 0 0 0
480 1 -0.698003 5.301857 35.160631 0 0 0
491 1 -5.347606 0 36.373067 0 0 0
492 1 -5.165391 1.384062 36.373067 0 0 0
493 1 -3.781329 3.781329 36.373067 0 0 0
494 1 -2.673803 4.631163 36.373067 0 0 0
507 1 -4.940544 2.04644 37.585503 0 0 0
508 1 -4.242541 3.255416 37.585503 0 0 0
509 1 -2.04644 4.940544 37.585503 0 0 0
510 1 -0.698003 5.301857 37.585503 0 0 0
521 1 -5.347606 0 38.797938 0 0 0
522 1 -5.165391 1.384062 38.797938 0 0 0
523 1 -3.781329 3.781329 38.797938 0 0 0
524 1 -2.673803 4.631163 38.797938 0 0 0
537 1 -4.940544 2.04644 40.010374 0 0 0
538 1 -4.242541 3.255416 40.010374 0 0 0
539 1 -2.04644 4.940544 40.010374 0 0 0
540 1 -0.698003 5.301857 40.010374 0 0 0
553 2 -0.437038 1.346915 3.135533 0 0 0
555 2 -0.027338 0.057515 3.446333 0 0 0
558 2 -0.261038 3.021015 1.641033 0 0 0
562 2 -2.508838 0.460615 2.293833 0 0 0
564 2 -1.685138 1.547515 2.559633 0 0 0
565 2 -1.582038 2.580015 1.640333 0 0 0
566 2 -3.229138 0.400315 1.109133 0 0 0
567 2 -3.120438 1.435215 0.183033 0 0 0
568 2 -2.292438 2.523315 0.448333 0 0 0
589 2 -2.150338 2.048715 -1.729367 0 0 0
590 2 -3.046238 1.147715 -1.172667 0 0 0
594 2 -0.376538 3.350315 -0.742867 0 0 0
595 2 -1.692038 2.912815 -0.740667 0 0 0
613 2 -0.437038 1.346915 13.431933 0 0 0
615 2 -0.027338 0.057515 13.742733 0 0 0
618 2 -0.261038 3.021015 11.937433 0 0 0
622 2 -2.508838 0.460615 12.590233 0 0 0
624 2 -1.685138 1.547515 12.856033 0 0 0
625 2 -1.582038 2.580015 11.936733 0 0 0
626 2 -3.229138 0.400315 11.405533 0 0 0
627 2 -3.120438 1.435215 10.479433 0 0 0
628 2 -2.292438 2.523315 10.744733 0 0 0
648 2 -1.279238 0.313115 7.137733 0 0 0
649 2 -2.150338 2.048715 8.567033 0 0 0
650 2 -3.046238 1.147715 9.123733 0 0 0
652 2 -1.263838 1.634915 7.577733 0 0 0
654 2 -0.376538 3.350315 9.553533 0 0 0
655 2 -1.692038 2.912815 9.555733 0 0 0
673 2 -0.437038 1.346915 23.728333 0 0 0
675 2 -0.027338 0.057515 24.039133 0 0 0
678 2 -0.261038 3.021015 22.233833 0 0 0
682 2 -2.508838 0.460615 22.886633 0 0 0
684 2 -1.685138 1.547515 23.152433 0 0 0
685 2 -1.582038 2.580015 22.233133 0 0 0
686 2 -3.229138 0.400315 21.701933 0 0 0
687 2 -3.120438 1.435215 20.775833 0 0 0
688 2 -2.292438 2.523315 21.041133 0 0 0
708 2 -1.279238 0.313115 17.434133 0 0 0
709 2 -2.150338 2.048715 18.863433 0 0 0
710 2 -3.046238 1.147715 19.420133 0 0 0
712 2 -1.263838 1.634915 17.874133 0 0 0
714 2 -0.376538 3.350315 19.849933 0 0 0
715 2 -1.692038 2.912815 19.852133 0 0 0
733 2 -0.437038 1.346915 34.024733 0 0 0
735 2 -0.027338 0.057515 34.335533 0 0 0
738 2 -0.261038 3.021015 32.530233 0 0 0
742 2 -2.508838 0.460615 33.183033 0 0 0
744 2 -1.685138 1.547515 33.448833 0 0 0
745 2 -1.582038 2.580015 32.529533 0 0 0
746 2 -3.229138 0.400315 31.998333 0 0 0
747 2 -3.120438 1.435215 31.072233 0 0 0
748 2 -2.292438 2.523315 31.337533 0 0 0
768 2 -1.279238 0.313115 27.730533 0 0 0
769 2 -2.150338 2.048715 29.159833 0 0 0
770 2 -3.046238 1.147715 29.716533 0 0 0
772 2 -1.263838 1.634915 28.170533 0 0 0
774 2 -0.376538 3.350315 30.146333 0 0 0
775 2 -1.692038 2.912815 30.148533 0 0 0
793 1 -5.347606 0 41.2228092202 0 0 0
794 1 -5.165391 1.384062 41.2228092202 0 0 0
795 1 -3.781329 3.781329 41.2228092202 0 0 0
796 1 -2.673803 4.631163 41.2228092202 0 0 0
809 1 -4.940544 2.04644 42.435245220199995 0 0 0
810 1 -4.242541 3.255416 42.435245220199995 0 0 0
811 1 -2.04644 4.940544 42.435245220199995 0 0 0
812 1 -0.698003 5.301857 42.435245220199995 0 0 0
823 1 -5.347606 0 43.6476802202 0 0 0
824 1 -5.165391 1.384062 43.6476802202 0 0 0
825 1 -3.781329 3.781329 43.6476802202 0 0 0
826 1 -2.673803 4.631163 43.6476802202 0 0 0
839 1 -4.940544 2.04644 44.8601162202 0 0 0
840 1 -4.242541 3.255416 44.8601162202 0 0 0
841 1 -2.04644 4.940544 44.8601162202 0 0 0
842 1 -0.698003 5.301857 44.8601162202 0 0 0
853 1 -5.347606 0 46.0725512202 0 0 0
854 1 -5.165391 1.384062 46.0725512202 0 0 0
855 1 -3.781329 3.781329 46.0725512202 0 0 0
856 1 -2.673803 4.631163 46.0725512202 0 0 0
869 1 -4.940544 2.04644 47.2849872202 0 0 0
870 1 -4.242541 3.255416 47.2849872202 0 0 0
871 1 -2.04644 4.940544 47.2849872202 0 0 0
872 1 -0.698003 5.301857 47.2849872202 0 0 0
883 1 -5.347606 0 48.4974222202 0 0 0
884 1 -5.165391 1.384062 48.4974222202 0 0 0
885 1 -3.781329 3.781329 48.4974222202 0 0 0
886 1 -2.673803 4.631163 48.4974222202 0 0 0
899 1 -4.940544 2.04644 49.7098582202 0 0 0
900 1 -4.242541 3.255416 49.7098582202 0 0 0
901 1 -2.04644 4.940544 49.7098582202 0 0 0
902 1 -0.698003 5.301857 49.7098582202 0 0 0
913 1 -5.347606 0 50.9222942202 0 0 0
914 1 -5.165391 1.384062 50.9222942202 0 0 0
915 1 -3.781329 3.781329 50.9222942202 0 0 0
916 1 -2.673803 4.631163 50.9222942202 0 0 0
929 1 -4.940544 2.04644 52.1347292202 0 0 0
930 1 -4.242541 3.255416 52.1347292202 0 0 0
931 1 -2.04644 4.940544 52.1347292202 0 0 0
932 1 -0.698003 5.301857 52.1347292202 0 0 0
945 1 -3.781329 3.781329 53.3471652202 0 0 0
946 1 -2.673803 4.631163 53.3471652202 0 0 0
959 1 -5.347606 0 53.3471652202 0 0 0
960 1 -5.165391 1.384062 53.3471652202 0 0 0
961 1 -2.04644 4.940544 54.5596002202 0 0 0
962 1 -0.698003 5.301857 54.5596002202 0 0 0
975 1 -4.940544 2.04644 54.5596002202 0 0 0
976 1 -4.242541 3.255416 54.5596002202 0 0 0
989 1 -5.347606 0 55.7720362202 0 0 0
990 1 -5.165391 1.384062 55.7720362202 0 0 0
991 1 -3.781329 3.781329 55.7720362202 0 0 0
992 1 -2.673803 4.631163 55.7720362202 0 0 0
1005 1 -4.940544 2.04644 56.9844712202 0 0 0
1006 1 -4.242541 3.255416 56.9844712202 0 0 0
1007 1 -2.04644 4.940544 56.9844712202 0 0 0
1008 1 -0.698003 5.301857 56.9844712202 0 0 0
1019 1 -5.347606 0 58.1969072202 0 0 0
1020 1 -5.165391 1.384062 58.1969072202 0 0 0
1021 1 -3.781329 3.781329 58.1969072202 0 0 0
1022 1 -2.673803 4.631163 58.1969072202 0 0 0
1035 1 -4.940544 2.04644 59.4093422202 0 0 0
1036 1 -4.242541 3.255416 59.4093422202 0 0 0
1037 1 -2.04644 4.940544 59.4093422202 0 0 0
1038 1 -0.698003 5.301857 59.4093422202 0 0 0
1337 2 -0.437038 1.346915 44.3583422202 0 0 0
1339 2 -0.027338 0.057515 44.6691422202 0 0 0
1342 2 -0.261038 3.021015 42.8638422202 0 0 0
1346 2 -2.508838 0.460615 43.5166422202 0 0 0
1348 2 -1.685138 1.547515 43.7824422202 0 0 0
1349 2 -1.582038 2.580015 42.8631422202 0 0 0
1350 2 -3.229138 0.400315 42.3319422202 0 0 0
1351 2 -3.120438 1.435215 41.4058422202 0 0 0
1352 2 -2.292438 2.523315 41.6711422202 0 0 0
1372 2 -1.279238 0.313115 38.0641422202 0 0 0
1373 2 -2.150338 2.048715 39.493442220199995 0 0 0
1374 2 -3.046238 1.147715 40.0501422202 0 0 0
1376 2 -1.263838 1.634915 38.504142220199995 0 0 0
1378 2 -0.376538 3.350315 40.4799422202 0 0 0
1379 2 -1.692038 2.912815 40.4821422202 0 0 0
1397 2 -0.437038 1.346915 54.6547422202 0 0 0
1399 2 -0.027338 0.057515 54.9655422202 0 0 0
1402 2 -0.261038 3.021015 53.1602422202 0 0 0
1406 2 -2.508838 0.460615 53.813042220199996 0 0 0
1408 2 -1.685138 1.547515 54.0788422202 0 0 0
1409 2 -1.582038 2.580015 53.159542220199995 0 0 0
1410 2 -3.229138 0.400315 52.6283422202 0 0 0
1411 2 -3.120438 1.435215 51.7022422202 0 0 0
1412 2 -2.292438 2.523315 51.9675422202 0 0 0
1432 2 -1.279238 0.313115 48.360542220199996 0 0 0
1433 2 -2.150338 2.048715 49.7898422202 0 0 0
1434 2 -3.046238 1.147715 50.3465422202 0 0 0
1436 2 -1.263838 1.634915 48.8005422202 0 0 0
1438 2 -0.376538 3.350315 50.7763422202 0 0 0
1439 2 -1.692038 2.912815 50.778542220199995 0 0 0
1492 2 -1.279238 0.313115 58.656942220199994 0 0 0
1496 2 -1.263838 1.634915 59.0969422202 0 0 0
2105 1 -4.940544 2.04644 -1.2124352202000068 0 0 1
2106 1 -4.242541 3.255416 -1.2124352202000068 0 0 1
2107 1 -2.04644 4.940544 -1.2124352202000068 0 0 1
2108 1 -0.698003 5.301857 -1.2124352202000068 0 0 1
585 2 -2.180538 -0.584085 121.0789606606 0 0 -1
587 2 -0.436238 -2.252685 121.09236066060001 0 0 -1
1046 1 -1.384062 -5.165391 60.6217782202 0 0 0
1047 1 -3.781329 -3.781329 60.6217782202 0 0 0
1048 1 -4.631163 -2.673803 60.6217782202 0 0 0
1061 1 -2.04644 -4.940544 61.834214220199996 0 0 0
1062 1 -3.255416 -4.242541 61.834214220199996 0 0 0
1063 1 -4.940544 -2.04644 61.834214220199996 0 0 0
1064 1 -5.301857 -0.698003 61.834214220199996 0 0 0
1076 1 -1.384062 -5.165391 63.046649220199996 0 0 0
1077 1 -3.781329 -3.781329 63.046649220199996 0 0 0
1078 1 -4.631163 -2.673803 63.046649220199996 0 0 0
1091 1 -2.04644 -4.940544 64.2590852202 0 0 0
1092 1 -3.255416 -4.242541 64.2590852202 0 0 0
1093 1 -4.940544 -2.04644 64.2590852202 0 0 0
1094 1 -5.301857 -0.698003 64.2590852202 0 0 0
1106 1 -1.384062 -5.165391 65.4715202202 0 0 0
1107 1 -3.781329 -3.781329 65.4715202202 0 0 0
1108 1 -4.631163 -2.673803 65.4715202202 0 0 0
1121 1 -2.04644 -4.940544 66.6839562202 0 0 0
1122 1 -3.255416 -4.242541 66.6839562202 0 0 0
1123 1 -4.940544 -2.04644 66.6839562202 0 0 0
1124 1 -5.301857 -0.698003 66.6839562202 0 0 0
1137 1 -3.781329 -3.781329 67.8963912202 0 0 0
1138 1 -4.631163 -2.673803 67.8963912202 0 0 0
1152 1 -1.384062 -5.165391 67.8963912202 0 0 0
1153 1 -4.940544 -2.04644 69.1088272202 0 0 0
1154 1 -5.301857 -0.698003 69.1088272202 0 0 0
1167 1 -2.04644 -4.940544 69.1088272202 0 0 0
1168 1 -3.255416 -4.242541 69.1088272202 0 0 0
1182 1 -1.384062 -5.165391 70.3212632202 0 0 0
1183 1 -3.781329 -3.781329 70.3212632202 0 0 0
1184 1 -4.631163 -2.673803 70.3212632202 0 0 0
1197 1 -2.04644 -4.940544 71.5336982202 0 0 0
1198 1 -3.255416 -4.242541 71.5336982202 0 0 0
1199 1 -4.940544 -2.04644 71.5336982202 0 0 0
1200 1 -5.301857 -0.698003 71.5336982202 0 0 0
1212 1 -1.384062 -5.165391 72.74613422019999 0 0 0
1213 1 -3.781329 -3.781329 72.74613422019999 0 0 0
1214 1 -4.631163 -2.673803 72.74613422019999 0 0 0
1227 1 -2.04644 -4.940544 73.95856922019999 0 0 0
1228 1 -3.255416 -4.242541 73.95856922019999 0 0 0
1229 1 -4.940544 -2.04644 73.95856922019999 0 0 0
1230 1 -5.301857 -0.698003 73.95856922019999 0 0 0
1242 1 -1.384062 -5.165391 75.1710052202 0 0 0
1243 1 -3.781329 -3.781329 75.1710052202 0 0 0
1244 1 -4.631163 -2.673803 75.1710052202 0 0 0
1257 1 -2.04644 -4.940544 76.3834402202 0 0 0
1258 1 -3.255416 -4.242541 76.3834402202 0 0 0
1259 1 -4.940544 -2.04644 76.3834402202 0 0 0
1260 1 -5.301857 -0.698003 76.3834402202 0 0 0
1272 1 -1.384062 -5.165391 77.5958762202 0 0 0
1273 1 -3.781329 -3.781329 77.5958762202 0 0 0
1274 1 -4.631163 -2.673803 77.5958762202 0 0 0
1287 1 -2.04644 -4.940544 78.80831222020001 0 0 0
1288 1 -3.255416 -4.242541 78.80831222020001 0 0 0
1289 1 -4.940544 -2.04644 78.80831222020001 0 0 0
1290 1 -5.301857 -0.698003 78.80831222020001 0 0 0
1302 1 -1.384062 -5.165391 80.02074722020001 0 0 0
1303 1 -3.781329 -3.781329 80.02074722020001 0 0 0
1304 1 -4.631163 -2.673803 80.02074722020001 0 0 0
1317 1 -2.04644 -4.940544 81.2331832202 0 0 0
1318 1 -3.255416 -4.242541 81.2331832202 0 0 0
1319 1 -4.940544 -2.04644 81.2331832202 0 0 0
1320 1 -5.301857 -0.698003 81.2331832202 0 0 0
1465 2 -2.088038 -0.828285 64.4195422202 0 0 0
1467 2 -0.842638 -1.030985 64.9978422202 0 0 0
1473 2 -0.488538 -2.919085 63.5605422202 0 0 0
1474 2 -1.740738 -2.718185 62.9877422202 0 0 0
1475 2 -0.037038 -2.074185 64.5693422202 0 0 0
1476 2 -2.546338 -1.670785 63.4182422202 0 0 0
1477 2 -3.257938 -0.919885 62.4941422202 0 0 0
1478 2 -1.652038 -3.011885 61.6343422202 0 0 0
1479 2 -2.351938 -2.249685 60.707042220199995 0 0 0
1480 2 -3.162038 -1.200685 61.1362422202 0 0 0
1485 2 -0.341738 -3.396185 61.3646422202 0 0 0
1490 2 -1.745738 -1.875185 59.515742220199996 0 0 0
1495 2 -3.063338 -0.168685 60.2133422202 0 0 0
1525 2 -2.088038 -0.828285 74.71594222019999 0 0 0
1527 2 -0.842638 -1.030985 75.2942422202 0 0 0
1533 2 -0.488538 -2.919085 73.8569422202 0 0 0
1534 2 -1.740738 -2.718185 73.2841422202 0 0 0
1535 2 -0.037038 -2.074185 74.86574222019999 0 0 0
1536 2 -2.546338 -1.670785 73.7146422202 0 0 0
1537 2 -3.257938 -0.919885 72.7905422202 0 0 0
1538 2 -1.652038 -3.011885 71.9307422202 0 0 0
1539 2 -2.351938 -2.249685 71.0034422202 0 0 0
1540 2 -3.162038 -1.200685 71.4326422202 0 0 0
1545 2 -0.341738 -3.396185 71.6610422202 0 0 0
1549 2 -2.180538 -0.584085 69.5225422202 0 0 0
1550 2 -1.745738 -1.875185 69.8121422202 0 0 0
1551 2 -0.436238 -2.252685 69.5359422202 0 0 0
1555 2 -3.063338 -0.168685 70.5097422202 0 0 0
1574 1 -1.384062 -5.165391 82.4456184404 0 0 0
1575 1 -3.781329 -3.781329 82.4456184404 0 0 0
1576 1 -4.631163 -2.673803 82.4456184404 0 0 0
1589 1 -2.04644 -4.940544 83.6580544404 0 0 0
1590 1 -3.255416 -4.242541 83.6580544404 0 0 0
1591 1 -4.940544 -2.04644 83.6580544404 0 0 0
1592 1 -5.301857 -0.698003 83.6580544404 0 0 0
1604 1 -1.384062 -5.165391 84.8704894404 0 0 0
1605 1 -3.781329 -3.781329 84.8704894404 0 0 0
1606 1 -4.631163 -2.673803 84.8704894404 0 0 0
1619 1 -2.04644 -4.940544 86.0829254404 0 0 0
1620 1 -3.255416 -4.242541 86.0829254404 0 0 0
1621 1 -4.940544 -2.04644 86.0829254404 0 0 0
1622 1 -5.301857 -0.698003 86.0829254404 0 0 0
1634 1 -1.384062 -5.165391 87.2953604404 0 0 0
1635 1 -3.781329 -3.781329 87.2953604404 0 0 0
1636 1 -4.631163 -2.673803 87.2953604404 0 0 0
1649 1 -2.04644 -4.940544 88.5077964404 0 0 0
1650 1 -3.255416 -4.242541 88.5077964404 0 0 0
1651 1 -4.940544 -2.04644 88.5077964404 0 0 0
1652 1 -5.301857 -0.698003 88.5077964404 0 0 0
1665 1 -3.781329 -3.781329 89.7202314404 0 0 0
1666 1 -4.631163 -2.673803 89.7202314404 0 0 0
1680 1 -1.384062 -5.165391 89.7202314404 0 0 0
1681 1 -4.940544 -2.04644 90.9326674404 0 0 0
1682 1 -5.301857 -0.698003 90.9326674404 0 0 0
1695 1 -2.04644 -4.940544 90.9326674404 0 0 0
1696 1 -3.255416 -4.242541 90.9326674404 0 0 0
1710 1 -1.384062 -5.165391 92.14510344039999 0 0 0
1711 1 -3.781329 -3.781329 92.14510344039999 0 0 0