LAMMPS (2 Aug 2023 - Update 3)
OMP_NUM_THREADS environment is not set. Defaulting to 1 thread. (src/comm.cpp:98)
  using 1 OpenMP thread(s) per MPI task

# 1------general---------------
units                             metal      #单位为lammps 中的metel 类型
dimension                    3          #模拟的维度 三维
boundary                    p p p      #周期边界条件
atom_style                  atomic   #原子类型自动
atom_modify              map array sort 100 2.0
neighbor                    3.0 bin
neigh_modify            every 1 delay 0 check yes
#2 -----global variable-------定义全局变量，方便统一修改；
variable temperature equal 300
variable tstep equal 0.001
variable pressure equal 0
variable thermalstep equal 100
variable dumpstep equal 1000
variable relaxtime equal 0
variable totaltime equal 100000
variable deformrate equal 5e-3
#3 -------model------------
#box tilt large
read_data     1.lmp
Reading data file ...
  orthogonal box = (-100 -100 -2.3312511) to (100 100 38.891558)
  3 by 4 by 1 MPI processor grid
  reading atoms ...
  784 atoms
  read_data CPU = 0.058 seconds
replicate 1 1 3
Replication is creating a 1x1x3 = 3 times larger system...
  orthogonal box = (-100 -100 -2.3312511) to (100 100 121.33718)
  2 by 3 by 2 MPI processor grid
  2352 atoms
  replicate CPU = 0.049 seconds
write_data l.data
System init for write_data ...
WARNING: Communication cutoff is 0.0. No ghost atoms will be generated. Atoms may get lost. (src/comm_brick.cpp:210)

pair_style hybrid airebo 3.0 airebo 3.0  lj/cut 10
pair_coeff * * airebo 1 CH.airebo C NULL
Reading airebo potential file CH.airebo with DATE: 2011-10-25
pair_coeff * * airebo 2 CH.airebo NULL C
Reading airebo potential file CH.airebo with DATE: 2011-10-25
pair_coeff 1 2 lj/cut 0.00456 3.431

# 5------minimize -----------
min_style      sd
minimize       1.0e-4 1.0e-6 100 1000
Neighbor list info ...
  update: every = 1 steps, delay = 0 steps, check = yes
  max neighbors/atom: 2000, page size: 100000
  master list distance cutoff = 13.2
  ghost atom cutoff = 13.2
  binsize = 6.6, bins = 31 31 19
  5 neighbor lists, perpetual/occasional/extra = 5 0 0
  (1) pair airebo, perpetual, skip from (4)
      attributes: full, newton on, ghost
      pair build: skip/ghost
      stencil: none
      bin: none
  (2) pair airebo, perpetual, skip from (4)
      attributes: full, newton on, ghost
      pair build: skip/ghost
      stencil: none
      bin: none
  (3) pair lj/cut, perpetual, skip from (5)
      attributes: half, newton on, cut 13
      pair build: skip
      stencil: none
      bin: none
  (4) neighbor class addition, perpetual
      attributes: full, newton on, ghost
      pair build: full/bin/ghost
      stencil: full/ghost/bin/3d
      bin: standard
  (5) neighbor class addition, perpetual
      attributes: half, newton on, cut 13
      pair build: half/bin/atomonly/newton
      stencil: half/bin/3d
      bin: standard
Per MPI rank memory allocation (min/avg/max) = 8.273 | 8.857 | 10.02 Mbytes
   Step          Temp          E_pair         E_mol          TotEng         Press     
         0   0             -12490.641      0             -12490.641      6493.3023    
        22   0             -16614.766      0             -16614.766      191.11314    
Loop time of 1.23749 on 12 procs for 22 steps with 2352 atoms

85.5% CPU use with 12 MPI tasks x 1 OpenMP threads

Minimization stats:
  Stopping criterion = energy tolerance
  Energy initial, next-to-last, final = 
      -12490.640692198  -16613.4814051764  -16614.7657832201
  Force two-norm initial, final = 1748.8984 15.220762
  Force max component initial, final = 135.10344 1.8602613
  Final line search alpha, max atom move = 0.048367349 0.089975905
  Iterations, force evaluations = 22 39

MPI task timing breakdown:
Section |  min time  |  avg time  |  max time  |%varavg| %total
---------------------------------------------------------------
Pair    | 2.6056e-05 | 0.14371    | 0.54156    |  55.2 | 11.61
Neigh   | 0          | 0          | 0          |   0.0 |  0.00
Comm    | 1.3785e-05 | 0.108      | 0.43345    |  49.3 |  8.73
Output  | 0          | 0          | 0          |   0.0 |  0.00
Modify  | 0          | 0          | 0          |   0.0 |  0.00
Other   |            | 0.9858     |            |       | 79.66

Nlocal:            196 ave         614 max           0 min
Histogram: 8 0 0 0 0 0 0 0 0 4
Nghost:        359.333 ave        1104 max           0 min
Histogram: 8 0 0 0 0 0 0 0 0 4
Neighs:              0 ave           0 max           0 min
Histogram: 12 0 0 0 0 0 0 0 0 0

Total # of neighbors = 0
Ave neighs/atom = 0
Neighbor list builds = 0
Dangerous builds = 0
#6----define computes------
variable nums equal count(all) #计算原子数目
variable toval equal 13.369*13.369*lz #计算系统总体积，单层石墨烯厚度为0.335nm
variable vol equal ${toval} #体系的初始体积
variable vol equal 22103.2779863959 
variable vatom equal v_vol/v_nums #单个原子体积
compute 1 all stress/atom NULL #计算体系中单原子应力
compute xalls all reduce sum c_1[1]
variable xstress equal (c_xalls)/(v_toval*10000)
compute yalls all reduce sum c_1[2]
variable ystress equal (c_yalls)/(v_toval*10000)
compute zalls all reduce sum c_1[3]
variable zstress equal (c_zalls)/(v_toval*10000)
#7---------relaxation-------------------------
timestep ${tstep}
timestep 0.001
#------------5 温度初始化------------------------------
velocity all create 300 4928459 dist gaussian units box
#------------------------------------------------------
dump   1 all atom 100 all-cy.lammpstrj
#fix    1 all npt temp 300 300  0.1 aniso 0 0  drag 1  #三个方向独立控压
fix  s all npt temp ${temperature} ${temperature} 0.1 y ${pressure} ${pressure} 10 x ${pressure} ${pressure} 10
fix  s all npt temp 300 ${temperature} 0.1 y ${pressure} ${pressure} 10 x ${pressure} ${pressure} 10
fix  s all npt temp 300 300 0.1 y ${pressure} ${pressure} 10 x ${pressure} ${pressure} 10
fix  s all npt temp 300 300 0.1 y 0 ${pressure} 10 x ${pressure} ${pressure} 10
fix  s all npt temp 300 300 0.1 y 0 0 10 x ${pressure} ${pressure} 10
fix  s all npt temp 300 300 0.1 y 0 0 10 x 0 ${pressure} 10
fix  s all npt temp 300 300 0.1 y 0 0 10 x 0 0 10
thermo                1000
thermo_modify       lost ignore
compute  2 all pe/atom
compute  pe all reduce sum c_2
variable PE equal "c_pe"
fix    pe all print 100 "${PE} " file PE.txt screen no
thermo  ${thermalstep}
thermo  100
#thermo_style  custom step pe ke etotal lx ly lz
run   ${relaxtime}
run   0
Per MPI rank memory allocation (min/avg/max) = 8.898 | 9.482 | 10.65 Mbytes
   Step          Temp          E_pair         E_mol          TotEng         Press          Volume    
        22   300           -16614.766      0             -16523.599      210.79829      4946737.1    
Loop time of 0.00731649 on 12 procs for 0 steps with 2352 atoms

68.2% CPU use with 12 MPI tasks x 1 OpenMP threads

MPI task timing breakdown:
Section |  min time  |  avg time  |  max time  |%varavg| %total
---------------------------------------------------------------
Pair    | 0          | 0          | 0          |   0.0 |  0.00
Neigh   | 0          | 0          | 0          |   0.0 |  0.00
Comm    | 0          | 0          | 0          |   0.0 |  0.00
Output  | 0          | 0          | 0          |   0.0 |  0.00
Modify  | 0          | 0          | 0          |   0.0 |  0.00
Other   |            | 0.007316   |            |       |100.00

Nlocal:            196 ave         590 max           0 min
Histogram: 8 0 0 0 0 0 0 0 0 4
Nghost:        359.333 ave        1080 max           0 min
Histogram: 8 0 0 0 0 0 0 0 0 4
Neighs:              0 ave           0 max           0 min
Histogram: 12 0 0 0 0 0 0 0 0 0

Total # of neighbors = 0
Ave neighs/atom = 0
Neighbor list builds = 0
Dangerous builds = 0
#8 -------tension-----------------------------
unfix s
undump  1
unfix  pe
reset_timestep 0
fix avestress all ave/atom 1 ${dumpstep} ${dumpstep} c_1[1] c_1[2] c_1[3] c_1[4] c_1[5] c_1[6]
fix avestress all ave/atom 1 1000 ${dumpstep} c_1[1] c_1[2] c_1[3] c_1[4] c_1[5] c_1[6]
fix avestress all ave/atom 1 1000 1000 c_1[1] c_1[2] c_1[3] c_1[4] c_1[5] c_1[6]

#-----calculation of strain and Cumulative compression--------
variable                tmp equal "lz"
variable                L0 equal ${tmp}
variable                L0 equal 123.6684276606
variable                strain equal "(lz - v_L0)/v_L0"
variable                Cumulativels equal "(lz - v_L0)/10"
fix Step all print 100 "${strain} ${Cumulativels} ${zstress}" file grapoten.txt screen no

dump 2 all custom ${dumpstep} tension.xyz type x y z f_avestress[1] f_avestress[2] f_avestress[3] f_avestress[4] f_avestress[5] f_avestress[6]
dump 2 all custom 1000 tension.xyz type x y z f_avestress[1] f_avestress[2] f_avestress[3] f_avestress[4] f_avestress[5] f_avestress[6]

fix  1 all npt temp ${temperature} ${temperature} 0.1 y ${pressure} ${pressure} 10 x ${pressure} ${pressure} 10
fix  1 all npt temp 300 ${temperature} 0.1 y ${pressure} ${pressure} 10 x ${pressure} ${pressure} 10
fix  1 all npt temp 300 300 0.1 y ${pressure} ${pressure} 10 x ${pressure} ${pressure} 10
fix  1 all npt temp 300 300 0.1 y 0 ${pressure} 10 x ${pressure} ${pressure} 10
fix  1 all npt temp 300 300 0.1 y 0 0 10 x ${pressure} ${pressure} 10
fix  1 all npt temp 300 300 0.1 y 0 0 10 x 0 ${pressure} 10
fix  1 all npt temp 300 300 0.1 y 0 0 10 x 0 0 10

thermo_style custom step pe ke etotal lx ly lz
WARNING: New thermo_style command, previous thermo_modify settings will be lost (src/output.cpp:903)
fix   2 all deform 1 z erate ${deformrate} remap x units box
fix   2 all deform 1 z erate 0.005 remap x units box
fix   3 all ave/time 2 500 1000 v_xstress v_ystress v_zstress file pressure.out
run   ${totaltime}
run   100000
WARNING: Dump 2 includes no atom IDs and is not sorted by ID. This may complicate post-processing tasks or visualization (src/dump.cpp:221)
Per MPI rank memory allocation (min/avg/max) = 10.4 | 10.98 | 12.15 Mbytes
   Step         PotEng         KinEng         TotEng           Lx             Ly             Lz      
         0  -16614.766      91.16718      -16523.599      200            200            123.66843    
       100  -16579.3        64.554886     -16514.745      200.02017      200.02662      123.73026    
       200  -16572.806      70.743347     -16502.062      200.02428      200.03601      123.7921     
       300  -16573.149      84.585862     -16488.563      200.00463      200.01144      123.85393    
       400  -16565.919      89.447804     -16476.471      200.01786      200.03262      123.91576    
       500  -16554.398      88.729858     -16465.668      200.02498      200.05039      123.9776     
       600  -16535.245      80.277035     -16454.968      200.00796      200.02841      124.03943    
       700  -16538.565      94.013787     -16444.551      200.01941      200.04686      124.10127    
       800  -16529.385      91.794744     -16437.59       200.01983      200.05937      124.1631     
       900  -16528.648      92.131347     -16436.517      200.00216      200.03608      124.22494    
      1000  -16540.522      97.417821     -16443.104      200.0194       200.05806      124.28677    
      1100  -16543.25       91.133858     -16452.116      200.01733      200.06701      124.3486     
      1200  -16546.105      87.777547     -16458.328      199.99462      200.0419       124.41044    
      1300  -16557.24       95.338577     -16461.901      200.01288      200.06193      124.47227    
      1400  -16544.545      84.251761     -16460.294      200.0155       200.07779      124.53411    
      1500  -16539.822      86.660796     -16453.161      199.99077      200.0549       124.59594    
      1600  -16541.538      96.262927     -16445.275      200.00863      200.07138      124.65778    
      1700  -16530.745      90.158247     -16440.587      200.01384      200.08785      124.71961    
      1800  -16529.588      89.809908     -16439.778      199.98796      200.06725      124.78144    
      1900  -16539.695      96.542569     -16443.153      200.00552      200.08027      124.84328    
      2000  -16538.339      89.819592     -16448.52       200.00834      200.09144      124.90511    
      2100  -16537.751      86.425736     -16451.325      199.98425      200.07686      124.96695    
      2200  -16540.884      91.304884     -16449.579      200.00216      200.089        125.02878    
      2300  -16534.719      90.631641     -16444.087      200.00487      200.09702      125.09061    
      2400  -16532.31       92.485977     -16439.824      199.97913      200.08489      125.15245    
      2500  -16534.65       95.582836     -16439.067      199.99713      200.09965      125.21428    
      2600  -16530.222      88.901979     -16441.32       200.00202      200.10368      125.27612    
      2700  -16533.541      90.216251     -16443.325      199.9757       200.09149      125.33795    
      2800  -16536.217      92.24241      -16443.975      199.99065      200.10834      125.39979    
      2900  -16529.227      88.544161     -16440.683      199.99799      200.111        125.46162    
      3000  -16527.29       91.175819     -16436.114      199.97239      200.09865      125.52345    
      3100  -16531.076      96.140187     -16434.936      199.98286      200.11601      125.58529    
      3200  -16527.23       89.589786     -16437.641      199.99025      200.11784      125.64712    
      3300  -16527.601      88.490523     -16439.11       199.96804      200.10602      125.70896    
      3400  -16529.029      90.857211     -16438.171      199.97695      200.12339      125.77079    
      3500  -16525.169      91.116617     -16434.052      199.98204      200.12242      125.83263    
      3600  -16521.775      91.521338     -16430.253      199.96396      200.10984      125.89446    
      3700  -16523.095      94.385702     -16428.71       199.97219      200.13111      125.95629    
      3800  -16524.314      93.419427     -16430.894      199.97167      200.12908      126.01813    
      3900  -16521.038      88.731374     -16432.307      199.95752      200.11336      126.07996    
      4000  -16523.711      91.822746     -16431.888      199.96766      200.13506      126.1418     
      4100  -16520.138      91.282774     -16428.855      199.96299      200.13632      126.20363    
      4200  -16512.626      87.983859     -16424.642      199.9496       200.1185       126.26546    
      4300  -16515.71       92.900759     -16422.809      199.9625       200.13819      126.3273     
      4400  -16516.622      94.19176      -16422.43       199.95399      200.14024      126.38913    
      4500  -16514.813      90.749999     -16424.063      199.94145      200.12596      126.45097    
      4600  -16515.069      90.381024     -16424.688      199.95397      200.14222      126.5128     
      4700  -16516.986      93.84144      -16423.144      199.9437       200.14052      126.57464    
      4800  -16510.66       90.693278     -16419.966      199.9326       200.12995      126.63647    
      4900  -16507.144      90.232596     -16416.911      199.94599      200.14528      126.6983     
      5000  -16506.792      92.471465     -16414.32       199.93303      200.14278      126.76014    
      5100  -16503.126      92.713982     -16410.412      199.92169      200.13471      126.82197    
      5200  -16501.219      91.954333     -16409.265      199.93655      200.14805      126.88381    
      5300  -16507.115      95.060212     -16412.055      199.9221       200.14194      126.94564    
      5400  -16503.019      90.370949     -16412.648      199.9109       200.13807      127.00748    
      5500  -16502.111      90.036415     -16412.074      199.92282      200.1505       127.06931    
      5600  -16501.129      91.352035     -16409.777      199.91027      200.14252      127.13114    
      5700  -16496.99       92.600153     -16404.39       199.90003      200.14123      127.19298    
      5800  -16494.667      91.753956     -16402.913      199.90923      200.15171      127.25481    
      5900  -16498.173      94.12225      -16404.051      199.89642      200.14059      127.31665    
      6000  -16493.792      89.957439     -16403.835      199.889        200.14126      127.37848    
      6100  -16489.101      87.490855     -16401.61       199.89382      200.15062      127.44031    
      6200  -16490.597      92.143783     -16398.453      199.88114      200.13895      127.50215    
      6300  -16490.646      95.281409     -16395.365      199.87656      200.1404       127.56398    
      6400  -16487.364      93.864689     -16393.499      199.8784       200.14865      127.62582    
      6500  -16487.453      92.16758      -16395.285      199.8654       200.13601      127.68765    
      6600  -16483.779      88.246388     -16395.533      199.86196      200.13836      127.74949    
      6700  -16480.582      87.881519     -16392.701      199.86092      200.14588      127.81132    
      6800  -16482.541      94.139702     -16388.402      199.84818      200.13353      127.87315    
      6900  -16481.067      94.655787     -16386.411      199.84745      200.13447      127.93499    
      7000  -16478.096      89.230802     -16388.865      199.84288      200.14044      127.99682    
      7100  -16478.883      89.761223     -16389.122      199.82791      200.12996      128.05866    
      7200  -16476.645      91.743064     -16384.902      199.83021      200.13199      128.12049    
      7300  -16472.825      91.812008     -16381.013      199.82503      200.13347      128.18233    
      7400  -16471.619      91.96319      -16379.656      199.80927      200.12422      128.24416    
      7500  -16470.75       90.86597      -16379.884      199.80989      200.12893      128.30599    
      7600  -16467.563      87.927506     -16379.635      199.80301      200.12567      128.36783    
      7700  -16468.519      92.04092      -16376.479      199.78851      200.11846      128.42966    
      7800  -16463.447      91.635512     -16371.812      199.78831      200.12476      128.4915     
      7900  -16462.022      93.391702     -16368.631      199.77954      200.11795      128.55333    
      8000  -16461.478      93.315609     -16368.162      199.7687       200.1098       128.61516    
      8100  -16460.366      89.98631      -16370.379      199.76599      200.11533      128.677      
      8200  -16459.273      90.871321     -16368.402      199.75385      200.10934      128.73883    
      8300  -16457.712      92.968455     -16364.744      199.74339      200.10283      128.80067    
      8400  -16452.516      90.317663     -16362.199      199.74282      200.10525      128.8625     
      8500  -16450.61       91.909174     -16358.7        199.7306       200.0976       128.92434    
      8600  -16447.038      94.079407     -16352.958      199.71753      200.09346      128.98617    
      8700  -16447.363      94.415559     -16352.948      199.71513      200.0945       129.048      
      8800  -16447.303      92.706991     -16354.596      199.70281      200.08523      129.10984    
      8900  -16445.199      91.254446     -16353.944      199.68866      200.08134      129.17167    
      9000  -16439.062      87.68694      -16351.375      199.68592      200.08342      129.23351    
      9100  -16439.534      93.39865      -16346.135      199.67258      200.07182      129.29534    
      9200  -16438.564      94.890977     -16343.673      199.65951      200.06658      129.35718    
      9300  -16436.689      92.24777      -16344.442      199.65392      200.06878      129.41901    
      9400  -16435.76       90.787428     -16344.973      199.6378       200.0565       129.48084    
      9500  -16433.474      88.995106     -16344.479      199.62773      200.05236      129.54268    
      9600  -16428.04       87.872971     -16340.167      199.62254      200.05249      129.60451    
      9700  -16425.83       90.659485     -16335.17       199.60291      200.03808      129.66635    
      9800  -16426.282      92.768382     -16333.514      199.5921       200.03749      129.72818    
      9900  -16426.182      91.508355     -16334.673      199.5841       200.03418      129.79001    
     10000  -16425.957      91.671156     -16334.286      199.56607      200.01839      129.85185    
     10100  -16421.998      90.929992     -16331.068      199.5558       200.01953      129.91368    
     10200  -16417.442      91.107373     -16326.335      199.54416      200.01477      129.97552    
     10300  -16415.153      91.98322      -16323.169      199.52799      199.99793      130.03735    
     10400  -16415.322      93.276433     -16322.045      199.51697      199.99665      130.09919    
     10500  -16415.113      92.103325     -16323.009      199.49885      199.9926       130.16102    
     10600  -16412.94       91.330653     -16321.609      199.48332      199.97774      130.22285    
     10700  -16408.667      90.493596     -16318.174      199.47553      199.97213      130.28469    
     10800  -16405.996      92.284399     -16313.712      199.4562       199.96695      130.34652    
     10900  -16403.068      93.00273      -16310.065      199.43696      199.953        130.40836    
     11000  -16400.666      92.246255     -16308.42       199.42555      199.94799      130.47019    
     11100  -16399.183      90.669337     -16308.514      199.40619      199.94078      130.53203    
     11200  -16395.149      88.503717     -16306.645      199.3882       199.92505      130.59386    
     11300  -16388.877      90.309537     -16298.567      199.37803      199.91944      130.65569    
     11400  -16388.052      92.166096     -16295.886      199.35303      199.91155      130.71753    
     11500  -16388.13       91.711145     -16296.419      199.33192      199.89669      130.77936    
     11600  -16387.837      90.814059     -16297.023      199.32136      199.88859      130.8412     
     11700  -16384.555      88.967055     -16295.588      199.29716      199.8757       130.90303    
     11800  -16383.09       91.313373     -16291.776      199.27533      199.86327      130.96486    
     11900  -16378.336      91.91273      -16286.423      199.25999      199.85524      131.0267     
     12000  -16376.506      92.916495     -16283.59       199.23265      199.84081      131.08853    
     12100  -16375.944      90.379511     -16285.565      199.21177      199.82773      131.15037    
     12200  -16372.001      88.18749      -16283.814      199.19652      199.81497      131.2122     
     12300  -16370.285      91.622055     -16278.663      199.16782      199.79902      131.27404    
     12400  -16369.257      93.440721     -16275.816      199.14217      199.7895       131.33587    
     12500  -16367.582      91.689152     -16275.893      199.12426      199.77389      131.3977     
     12600  -16363.645      89.258578     -16274.387      199.0966       199.75441      131.45954    
     12700  -16361.485      91.376722     -16270.109      199.07058      199.74428      131.52137    
     12800  -16356.764      91.406621     -16265.357      199.04779      199.72835      131.58321    
     12900  -16354.854      92.090319     -16262.764      199.01729      199.70737      131.64504    
     13000  -16354.27       91.334055     -16262.936      198.99075      199.69462      131.70688    
     13100  -16352.12       89.649274     -16262.471      198.96504      199.67632      131.76871    
     13200  -16350.569      91.626985     -16258.942      198.93273      199.65601      131.83054    
     13300  -16344.275      90.190363     -16254.085      198.90425      199.64122      131.89238    
     13400  -16340.93       90.863916     -16250.066      198.87357      199.62269      131.95421    
     13500  -16342.008      94.06637      -16247.942      198.84082      199.59841      132.01605    
     13600  -16340.211      92.162987     -16248.048      198.81173      199.58006      132.07788    
     13700  -16336.474      89.457186     -16247.016      198.77742      199.56005      132.13971    
     13800  -16330.187      87.792908     -16242.394      198.74013      199.53827      132.20155    
     13900  -16329.733      90.740367     -16238.993      198.70803      199.51793      132.26338    
     14000  -16327.62       91.129262     -16236.491      198.67195      199.49093      132.32522    
     14100  -16327.615      91.423934     -16236.191      198.63268      199.46804      132.38705    
     14200  -16322.363      87.831168     -16234.532      198.59526      199.44883      132.44889    
     14300  -16318.346      89.956358     -16228.39       198.55674      199.41909      132.51072    
     14400  -16315.582      92.054957     -16223.527      198.51809      199.39204      132.57255    
     14500  -16313.727      92.887345     -16220.84       198.476        199.37007      132.63439    
     14600  -16312.5        91.578296     -16220.922      198.42932      199.34159      132.69622    
     14700  -16310.18       89.624529     -16220.555      198.38875      199.31146      132.75806    
     14800  -16307.66       90.422651     -16217.237      198.34601      199.28331      132.81989    
     14900  -16302.605      90.451596     -16212.154      198.29543      199.25448      132.88173    
     15000  -16300.035      91.706213     -16208.329      198.24774      199.22528      132.94356    
     15100  -16298.151      92.06492      -16206.086      198.20144      199.19293      133.00539    
     15200  -16294.234      90.268166     -16203.966      198.15151      199.15741      133.06723    
     15300  -16292.427      89.291123     -16203.136      198.0988       199.12806      133.12906    
     15400  -16291.795      87.737522     -16204.058      198.0461       199.09385      133.1909     
     15500  -16288.384      89.214131     -16199.17       197.9941       199.05442      133.25273    
     15600  -16283.629      89.836327     -16193.793      197.9382       199.02253      133.31457    
     15700  -16280.912      91.569175     -16189.343      197.87954      198.98719      133.3764     
     15800  -16277.723      92.651303     -16185.071      197.82207      198.9467       133.43823    
     15900  -16273.741      92.410045     -16181.331      197.76366      198.90957      133.50007    
     16000  -16272.72       91.607084     -16181.113      197.70295      198.86772      133.5619     
     16100  -16269.106      87.788307     -16181.318      197.64037      198.82544      133.62374    
     16200  -16269.679      92.152056     -16177.526      197.57546      198.7876       133.68557    
     16300  -16265.886      93.634572     -16172.252      197.50946      198.74454      133.7474     
     16400  -16262.042      93.501429     -16168.541      197.44656      198.69569      133.80924    
     16500  -16258.971      89.848641     -16169.122      197.37729      198.65366      133.87107    
     16600  -16258.396      89.744802     -16168.652      197.30358      198.61191      133.93291    
     16700  -16254.86       91.069147     -16163.791      197.23587      198.56126      133.99474    
     16800  -16248.609      90.448938     -16158.161      197.16494      198.51348      134.05658    
     16900  -16246.766      92.373085     -16154.393      197.0877       198.46904      134.11841    
     17000  -16244.769      92.063362     -16152.706      197.01312      198.4164       134.18024    
     17100  -16242.901      91.117503     -16151.784      196.9394       198.36451      134.24208    
     17200  -16239.288      90.373763     -16148.914      196.85806      198.31788      134.30391    
     17300  -16233.608      93.205811     -16140.402      196.77892      198.26233      134.36575    
     17400  -16231.012      93.987708     -16137.025      196.70245      198.20718      134.42758    
     17500  -16227.418      90.441004     -16136.977      196.61506      198.15837      134.48942    
     17600  -16227.296      90.833273     -16136.463      196.5316       198.10111      134.55125    
     17700  -16223.768      89.558993     -16134.209      196.45429      198.04246      134.61308    
     17800  -16219.575      90.389723     -16129.185      196.36368      197.98814      134.67492    
     17900  -16213.541      90.992646     -16122.548      196.27503      197.93275      134.73675    
     18000  -16213.451      93.921076     -16119.53       196.1916       197.87382      134.79859    
     18100  -16211.128      93.033156     -16118.095      196.10052      197.81375      134.86042    
     18200  -16210.015      93.001969     -16117.013      196.01178      197.75509      134.92225    
     18300  -16207.344      92.738946     -16114.605      195.92288      197.69349      134.98409    
     18400  -16202.327      90.704882     -16111.622      195.8272       197.63448      135.04592    
     18500  -16196.7        88.850376     -16107.85       195.73739      197.57341      135.10776    
     18600  -16194.204      91.661102     -16102.543      195.64753      197.50716      135.16959    
     18700  -16190.791      96.486635     -16094.304      195.54971      197.44752      135.23143    
     18800  -16186.405      94.655872     -16091.749      195.45513      197.38703      135.29326    
     18900  -16181.557      89.759926     -16091.797      195.36316      197.31819      135.35509    
     19000  -16182.218      91.131777     -16091.086      195.26626      197.25549      135.41693    
     19100  -16179.998      89.985495     -16090.013      195.16866      197.19459      135.47876    
     19200  -16177.357      89.569395     -16087.788      195.07557      197.12566      135.5406     
     19300  -16172.947      90.425384     -16082.522      194.97829      197.06269      135.60243    
     19400  -16167.049      91.46189      -16075.587      194.8785       196.99961      135.66427    
     19500  -16164.943      92.174178     -16072.769      194.78694      196.9288       135.7261     
     19600  -16162.389      90.267436     -16072.121      194.68903      196.86402      135.78793    
     19700  -16161.12       89.960175     -16071.16       194.58716      196.80317      135.84977    
     19800  -16159.883      91.83016      -16068.053      194.49358      196.73444      135.9116     
     19900  -16151.523      88.207045     -16063.316      194.39934      196.66598      135.97344    
     20000  -16150.149      91.945583     -16058.203      194.29876      196.60382      136.03527    
     20100  -16148.147      93.37832      -16054.768      194.20228      196.53761      136.0971     
     20200  -16142.801      89.895101     -16052.906      194.10669      196.47113      136.15894    
     20300  -16142.154      90.414211     -16051.74       194.00969      196.40682      136.22077    
     20400  -16136.742      88.162693     -16048.579      193.91461      196.34074      136.28261    
     20500  -16134.821      90.742399     -16044.078      193.81985      196.27554      136.34444    
     20600  -16130.586      91.415435     -16039.17       193.72378      196.21135      136.40628    
     20700  -16128.53       93.275933     -16035.254      193.62881      196.14728      136.46811    
     20800  -16126.673      91.818183     -16034.855      193.5353       196.08302      136.52994    
     20900  -16122.726      88.463222     -16034.263      193.4439       196.01655      136.59178    
     21000  -16117.999      88.882558     -16029.116      193.35108      195.95468      136.65361    
     21100  -16114.744      91.698495     -16023.046      193.25531      195.89327      136.71545    
     21200  -16110.884      92.004982     -16018.879      193.16455      195.82925      136.77728    
     21300  -16108.947      91.586479     -16017.36       193.07677      195.76531      136.83912    
     21400  -16106.203      89.093077     -16017.11       192.98403      195.70457      136.90095    
     21500  -16100.898      87.290902     -16013.607      192.89623      195.64263      136.96278    
     21600  -16098.35       90.332986     -16008.017      192.80897      195.58064      137.02462    
     21700  -16095.465      92.891517     -16002.573      192.7174       195.52309      137.08645    
     21800  -16090.515      90.969767     -15999.545      192.6333       195.4624       137.14829    
     21900  -16089.175      90.338504     -15998.836      192.54883      195.4006       137.21012    
     22000  -16088.098      90.946715     -15997.152      192.46221      195.34384      137.27195    
     22100  -16081.931      88.960787     -15992.97       192.37829      195.28547      137.33379    
     22200  -16078.248      90.942318     -15987.306      192.29594      195.22615      137.39562    
     22300  -16074.899      93.103972     -15981.795      192.21291      195.1701       137.45746    
     22400  -16072.439      93.110533     -15979.329      192.12988      195.11358      137.51929    
     22500  -16069.631      90.519472     -15979.111      192.05168      195.05585      137.58113    
     22600  -16064.495      88.986246     -15975.508      191.97102      195.00177      137.64296    
     22700  -16060.869      91.408791     -15969.46       191.89051      194.94841      137.70479    
     22800  -16056.311      91.871844     -15964.439      191.81445      194.89218      137.76663    
     22900  -16054.016      92.415285     -15961.601      191.73601      194.83956      137.82846    
     23000  -16049.39       88.410495     -15960.98       191.66123      194.78509      137.8903     
     23100  -16050.548      91.635612     -15958.912      191.58767      194.7305       137.95213    
     23200  -16045.637      90.996835     -15954.64       191.51073      194.6821       138.01397    
     23300  -16041.343      92.275919     -15949.067      191.43804      194.63001      138.0758     
     23400  -16034.075      90.787971     -15943.287      191.36651      194.57719      138.13763    
     23500  -16033.992      94.003958     -15939.988      191.29401      194.52945      138.19947    
     23600  -16030.28       91.54456      -15938.735      191.22376      194.47747      138.2613     
     23700  -16026.75       90.727168     -15936.023      191.15598      194.42665      138.32314    
     23800  -16024.051      92.122484     -15931.929      191.08549      194.38129      138.38497    
     23900  -16019.603      93.056559     -15926.547      191.01493      194.33284      138.4468     
     24000  -16016.711      95.481626     -15921.229      190.95008      194.28445      138.50864    
     24100  -16010.443      91.418229     -15919.025      190.88366      194.23745      138.57047    
     24200  -16008.309      88.32249      -15919.986      190.81644      194.18995      138.63231    
     24300  -16004.413      87.942603     -15916.471      190.75397      194.14413      138.69414    
     24400  -16000.698      90.556753     -15910.141      190.68924      194.09826      138.75598    
     24500  -15995.728      91.304138     -15904.424      190.62452      194.05378      138.81781    
     24600  -15993.346      92.310395     -15901.035      190.56249      194.01063      138.87964    
     24700  -15992.52       93.004747     -15899.515      190.50062      193.9635       138.94148    
     24800  -15988.704      90.34434      -15898.359      190.44058      193.91938      139.00331    
     24900  -15984.347      88.765349     -15895.582      190.37828      193.87903      139.06515    
     25000  -15979.642      90.759286     -15888.883      190.31909      193.83544      139.12698    
     25100  -15973.007      91.31926      -15881.688      190.26091      193.79195      139.18882    
     25200  -15970.276      92.953686     -15877.322      190.20137      193.75119      139.25065    
     25300  -15966.781      89.83126      -15876.95       190.14331      193.7086       139.31248    
     25400  -15965.945      90.524373     -15875.421      190.08674      193.66654      139.37432    
     25500  -15961.628      89.968567     -15871.659      190.03079      193.62724      139.43615    
     25600  -15959.575      93.476745     -15866.098      189.97192      193.58714      139.49799    
     25700  -15952.628      93.126998     -15859.501      189.91743      193.54746      139.55982    
     25800  -15947.755      93.454566     -15854.3        189.86468      193.5075       139.62165    
     25900  -15945.413      92.146322     -15853.266      189.8078       193.46699      139.68349    
     26000  -15941.944      88.759371     -15853.185      189.7554       193.42873      139.74532    
     26100  -15938.926      88.85354      -15850.072      189.7047       193.38772      139.80716    
     26200  -15937.59       92.391279     -15845.199      189.64788      193.35026      139.86899    
     26300  -15932.269      93.355773     -15838.913      189.59632      193.31624      139.93083    
     26400  -15925.368      91.904338     -15833.463      189.546        193.27537      139.99266    
     26500  -15922.092      91.801772     -15830.29       189.49256      193.23813      140.05449    
     26600  -15922.117      91.235015     -15830.881      189.44289      193.20348      140.11633    
     26700  -15918.323      89.943152     -15828.379      189.39364      193.16272      140.17816    
     26800  -15913.375      89.774991     -15823.6        189.34193      193.12755      140.24       
     26900  -15907.748      90.828919     -15816.919      189.29257      193.0942       140.30183    
     27000  -15903.447      91.153525     -15812.294      189.24482      193.05467      140.36367    
     27100  -15901.223      90.149829     -15811.073      189.19393      193.02113      140.4255     
     27200  -15898.715      87.301187     -15811.414      189.14658      192.9871       140.48733    
     27300  -15897.461      90.647051     -15806.814      189.0996       192.94728      140.54917    
     27400  -15890.436      89.75444      -15800.681      189.05267      192.91469      140.611      
     27500  -15884.467      90.430941     -15794.037      189.00553      192.88107      140.67284    
     27600  -15882.596      92.931872     -15789.664      188.95861      192.8431       140.73467    
     27700  -15879.652      91.452352     -15788.2        188.91078      192.81303      140.7965     
     27800  -15875.005      88.372859     -15786.632      188.86386      192.77936      140.85834    
     27900  -15872.859      90.779932     -15782.079      188.81922      192.74149      140.92017    
     28000  -15868.518      91.969449     -15776.548      188.77427      192.71122      140.98201    
     28100  -15864.237      92.381171     -15771.856      188.72773      192.67644      141.04384    
     28200  -15860.473      90.939633     -15769.534      188.68513      192.64046      141.10568    
     28300  -15856.326      86.85395      -15769.472      188.63932      192.61197      141.16751    
     28400  -15854.278      89.229341     -15765.049      188.59244      192.57854      141.22934    
     28500  -15848.926      90.77537      -15758.151      188.55112      192.54466      141.29118    
     28600  -15842.072      89.362977     -15752.709      188.50697      192.51403      141.35301    
     28700  -15840.866      92.499638     -15748.367      188.46158      192.48023      141.41485    
     28800  -15836.937      91.803447     -15745.134      188.42216      192.44647      141.47668    
     28900  -15835.902      90.677393     -15745.225      188.37803      192.41572      141.53852    
     29000  -15832.73       90.238539     -15742.492      188.33271      192.38392      141.60035    
     29100  -15826.532      89.781135     -15736.751      188.29216      192.35336      141.66218    
     29200  -15819.938      89.272297     -15730.665      188.24787      192.32241      141.72402    
     29300  -15818.097      92.115621     -15725.982      188.2042       192.29045      141.78585    
     29400  -15815.782      92.794605     -15722.987      188.16604      192.25904      141.84769    
     29500  -15811.87       90.033754     -15721.837      188.12309      192.22585      141.90952    
     29600  -15807.988      89.009114     -15718.978      188.08131      192.19504      141.97135    
     29700  -15802.803      89.15571      -15713.647      188.04265      192.16542      142.03319    
     29800  -15799.33       92.202544     -15707.127      187.99741      192.1342       142.09502    
     29900  -15792.928      91.375378     -15701.553      187.95655      192.10561      142.15686    
     30000  -15791.36       93.561608     -15697.799      187.91812      192.07456      142.21869    
     30100  -15789.331      91.906633     -15697.424      187.87592      192.04171      142.28053    
     30200  -15787.438      91.93114      -15695.507      187.83743      192.01239      142.34236    
     30300  -15778.444      88.893162     -15689.551      187.79827      191.97947      142.40419    
     30400  -15773.352      90.143423     -15683.209      187.75719      191.94947      142.46603    
     30500  -15770.995      92.148182     -15678.847      187.71581      191.92278      142.52786    
     30600  -15767.074      91.279317     -15675.795      187.67585      191.89083      142.5897     
     30700  -15764.739      90.490258     -15674.248      187.63676      191.86087      142.65153    
     30800  -15762.194      88.747395     -15673.447      187.59707      191.83178      142.71337    
     30900  -15757.091      88.975502     -15668.115      187.55886      191.79923      142.7752     
     31000  -15751.373      90.453691     -15660.919      187.52172      191.76864      142.83703    
     31100  -15747.102      91.277638     -15655.824      187.48072      191.74074      142.89887    
     31200  -15741.431      90.493084     -15650.938      187.44004      191.71094      142.9607     
     31300  -15738.511      91.754919     -15646.757      187.40258      191.68222      143.02254    
     31400  -15735.982      90.61135      -15645.371      187.36243      191.65301      143.08437    
     31500  -15731.041      87.635459     -15643.405      187.32302      191.62318      143.14621    
     31600  -15728.281      90.84688      -15637.434      187.2873       191.59301      143.20804    
     31700  -15721.046      90.248805     -15630.797      187.24734      191.56258      143.26987    
     31800  -15719.313      92.628459     -15626.685      187.20948      191.5329       143.33171    
     31900  -15713.847      89.949409     -15623.898      187.172        191.50376      143.39354    
     32000  -15711.654      89.967728     -15621.687      187.1324       191.47451      143.45538    
     32100  -15708.454      88.930006     -15619.524      187.09394      191.44581      143.51721    
     32200  -15702.951      88.402002     -15614.549      187.05681      191.41646      143.57904    
     32300  -15697.93       91.114908     -15606.815      187.01783      191.38713      143.64088    
     32400  -15691.137      89.298497     -15601.839      186.98035      191.35728      143.70271    
     32500  -15688.466      90.400052     -15598.066      186.94535      191.32761      143.76455    
     32600  -15685.945      90.555205     -15595.39       186.90518      191.29814      143.82638    
     32700  -15683.636      89.439235     -15594.197      186.86735      191.27004      143.88822    
     32800  -15681.522      91.073647     -15590.448      186.83054      191.24049      143.95005    
     32900  -15672.81       89.934522     -15582.875      186.79015      191.21201      144.01188    
     33000  -15670.207      93.088326     -15577.119      186.75375      191.18409      144.07372    
     33100  -15665.84       92.201941     -15573.638      186.71789      191.15167      144.13555    
     33200  -15661.74       90.808538     -15570.932      186.67958      191.12406      144.19739    
     33300  -15658.354      89.644178     -15568.71       186.64195      191.09524      144.25922    
     33400  -15657.695      89.333355     -15568.362      186.60624      191.06319      144.32106    
     33500  -15650.997      87.728292     -15563.269      186.56733      191.03589      144.38289    
     33600  -15646.236      90.226337     -15556.009      186.52914      191.0083       144.44472    
     33700  -15641.916      91.607077     -15550.309      186.49387      190.97669      144.50656    
     33800  -15637.516      93.136589     -15544.38       186.45606      190.94816      144.56839    
     33900  -15629.45       90.51008      -15538.94       186.41967      190.9195       144.63023    
     34000  -15629.265      92.275115     -15536.99       186.38268      190.88719      144.69206    
     34100  -15626.055      89.737464     -15536.317      186.34531      190.85972      144.75389    
     34200  -15622.101      90.538528     -15531.562      186.30799      190.83137      144.81573    
     34300  -15616.456      91.432749     -15525.023      186.27083      190.79956      144.87756    
     34400  -15611.13       91.20119      -15519.929      186.2339       190.77247      144.9394     
     34500  -15606.94       90.577512     -15516.363      186.19527      190.74286      145.00123    
     34600  -15603.654      89.800931     -15513.853      186.1601       190.71168      145.06307    
     34700  -15605.38       90.595731     -15514.784      186.12282      190.68301      145.1249     
     34800  -15599.771      90.183053     -15509.588      186.08582      190.65301      145.18673    
     34900  -15593.631      91.767665     -15501.864      186.05075      190.62257      145.24857    
     35000  -15585.246      89.75278      -15495.493      186.0123       190.59368      145.3104     
     35100  -15581.848      91.56549      -15490.282      185.97425      190.56579      145.37224    
     35200  -15576.858      89.377221     -15487.481      185.93732      190.53433      145.43407    
     35300  -15576.041      89.15192      -15486.889      185.90061      190.50592      145.49591    
     35400  -15571.569      89.517091     -15482.052      185.86237      190.4766       145.55774    
     35500  -15565.953      90.263773     -15475.689      185.82721      190.44497      145.61957    
     35600  -15562.143      91.898023     -15470.244      185.79133      190.41555      145.68141    
     35700  -15558.681      92.214986     -15466.466      185.75079      190.38636      145.74324    
     35800  -15554.528      90.43589      -15464.092      185.71597      190.35727      145.80508    
     35900  -15550.446      87.730585     -15462.716      185.67814      190.32523      145.86691    
     36000  -15549.659      87.827468     -15461.831      185.63974      190.29798      145.92874    
     36100  -15542.926      88.624014     -15454.302      185.60329      190.26769      145.99058    
     36200  -15539.306      91.712158     -15447.594      185.56678      190.23461      146.05241    
     36300  -15530.948      89.523253     -15441.425      185.53         190.20731      146.11425    
     36400  -15527.586      92.198593     -15435.387      185.49157      190.17626      146.17608    
     36500  -15521.693      90.767111     -15430.926      185.45645      190.14498      146.23792    
     36600  -15519.599      89.758256     -15429.841      185.41699      190.11673      146.29975    
     36700  -15515.913      88.3361       -15427.577      185.37868      190.08757      146.36158    
     36800  -15511.561      89.103204     -15422.457      185.34208      190.05471      146.42342    
     36900  -15509.006      92.952674     -15416.053      185.30356      190.02619      146.48525    
     37000  -15502.397      92.01426      -15410.382      185.26599      189.99674      146.54709    
     37100  -15498.342      92.122409     -15406.219      185.23024      189.96213      146.60892    
     37200  -15496.536      93.038523     -15403.497      185.19284      189.9339       146.67076    
     37300  -15491.352      89.991858     -15401.36       185.15296      189.90386      146.73259    
     37400  -15487.5        90.249101     -15397.251      185.11741      189.8716       146.79442    
     37500  -15481.15       93.021909     -15388.128      185.07839      189.84299      146.85626    
     37600  -15475.575      92.430718     -15383.144      185.03903      189.81296      146.91809    
     37700  -15473.64       92.002608     -15381.637      185.00375      189.78008      146.97993    
     37800  -15468.974      89.73719      -15379.236      184.96542      189.74863      147.04176    
     37900  -15465.665      90.495768     -15375.169      184.92727      189.71879      147.10359    
     38000  -15460.017      91.132287     -15368.885      184.88994      189.68602      147.16543    
     38100  -15456.176      95.724451     -15360.452      184.85213      189.65536      147.22726    
     38200  -15449.65       92.795099     -15356.855      184.81203      189.62506      147.2891     
     38300  -15445.174      90.540875     -15354.633      184.77443      189.5941       147.35093    
     38400  -15443.494      91.848387     -15351.645      184.73684      189.56267      147.41277    
     38500  -15436.561      89.186427     -15347.375      184.69726      189.53128      147.4746     
     38600  -15432.228      90.915896     -15341.312      184.66032      189.49962      147.53643    
     38700  -15429.115      94.580315     -15334.535      184.62344      189.46612      147.59827    
     38800  -15422.849      91.275481     -15331.573      184.58479      189.4347       147.6601     
     38900  -15423.541      92.973016     -15330.568      184.54535      189.40334      147.72194    
     39000  -15415.719      89.201816     -15326.517      184.50734      189.37148      147.78377    
     39100  -15415.289      93.811903     -15321.477      184.46652      189.34059      147.84561    
     39200  -15409.158      92.137801     -15317.02       184.42729      189.30945      147.90744    
     39300  -15404.821      90.552874     -15314.268      184.39043      189.2764       147.96927    
     39400  -15398.743      87.63523      -15311.108      184.35118      189.24203      148.03111    
     39500  -15397.805      92.769853     -15305.036      184.31359      189.21154      148.09294    
     39600  -15390.059      92.447721     -15297.611      184.27494      189.17703      148.15478    
     39700  -15384.239      91.300186     -15292.939      184.23614      189.14409      148.21661    
     39800  -15381.618      91.499827     -15290.119      184.19569      189.11446      148.27844    
     39900  -15379.338      91.750901     -15287.587      184.15539      189.08137      148.34028    
     40000  -15374.057      90.570573     -15283.486      184.11587      189.04939      148.40211    
     40100  -15367.957      89.63373      -15278.323      184.0771       189.01735      148.46395    
     40200  -15363.484      90.86286      -15272.622      184.03729      188.98351      148.52578    
     40300  -15360.311      92.816983     -15267.494      183.99877      188.9492       148.58762    
     40400  -15355.733      91.345014     -15264.388      183.9605       188.91616      148.64945    
     40500  -15352.403      89.740199     -15262.663      183.91912      188.8826       148.71128    
     40600  -15349.238      90.82445      -15258.414      183.87995      188.8503       148.77312    
     40700  -15342.477      92.941411     -15249.536      183.83971      188.81735      148.83495    
     40800  -15336.584      92.6953       -15243.888      183.79787      188.78397      148.89679    
     40900  -15331.135      89.789414     -15241.346      183.75885      188.75238      148.95862    
     41000  -15332.134      92.962604     -15239.172      183.71802      188.71716      149.02046    
     41100  -15325.316      90.120021     -15235.195      183.67917      188.68277      149.08229    
     41200  -15318.465      89.750414     -15228.714      183.63992      188.64883      149.14412    
     41300  -15313.015      93.036968     -15219.978      183.59879      188.61471      149.20596    
     41400  -15309.985      93.541645     -15216.443      183.55939      188.57984      149.26779    
     41500  -15306.523      91.901058     -15214.622      183.5179       188.54645      149.32963    
     41600  -15304.937      93.259879     -15211.677      183.47629      188.514        149.39146    
     41700  -15298.671      91.083076     -15207.588      183.4352       188.47914      149.45329    
     41800  -15292.177      90.876851     -15201.3        183.39464      188.44595      149.51513    
     41900  -15286.486      93.491268     -15192.994      183.35382      188.41104      149.57696    
     42000  -15280.521      91.385553     -15189.135      183.31402      188.37496      149.6388     
     42100  -15279.63       92.801438     -15186.828      183.27478      188.33966      149.70063    
     42200  -15273.14       89.724208     -15183.416      183.23301      188.30494      149.76247    
     42300  -15268.813      89.259449     -15179.553      183.19225      188.27029      149.8243     
     42400  -15265.38       89.510058     -15175.87       183.15012      188.23588      149.88613    
     42500  -15263.93       90.188635     -15173.742      183.10695      188.20312      149.94797    
     42600  -15258.274      87.901344     -15170.372      183.06566      188.16823      150.0098     
     42700  -15252.644      89.678459     -15162.966      183.02508      188.13188      150.07164    
     42800  -15247.907      92.291482     -15155.615      182.98343      188.09757      150.13347    
     42900  -15244.7        93.247468     -15151.453      182.94399      188.05987      150.19531    
     43000  -15238.227      89.888279     -15148.339      182.90304      188.0233       150.25714    
     43100  -15238.739      92.810396     -15145.929      182.86035      187.99007      150.31897    
     43200  -15233.848      88.856448     -15144.992      182.81752      187.9535       150.38081    
     43300  -15228.376      87.349442     -15141.026      182.77576      187.91945      150.44264    
     43400  -15221.874      89.501469     -15132.373      182.73286      187.88599      150.50448    
     43500  -15217.412      91.557562     -15125.855      182.69062      187.84854      150.56631    
     43600  -15211.424      91.984903     -15119.439      182.65119      187.81194      150.62814    
     43700  -15206.602      91.769089     -15114.833      182.60898      187.77497      150.68998    
     43800  -15203.911      90.769456     -15113.142      182.56713      187.73856      150.75181    
     43900  -15199.42       89.258321     -15110.162      182.52563      187.70221      150.81365    
     44000  -15194.157      89.356107     -15104.801      182.48274      187.6657       150.87548    
     44100  -15188.711      90.375333     -15098.335      182.43947      187.63151      150.93732    
     44200  -15183.661      90.837244     -15092.823      182.39611      187.59608      150.99915    
     44300  -15180.82       92.491644     -15088.329      182.35349      187.55959      151.06098    
     44400  -15176.425      91.54521      -15084.88       182.31059      187.52304      151.12282    
     44500  -15172.281      90.227952     -15082.054      182.26872      187.48726      151.18465    
     44600  -15168.297      90.4407       -15077.856      182.22713      187.4483       151.24649    
     44700  -15160.046      90.438775     -15069.608      182.18568      187.41148      151.30832    
     44800  -15154.785      91.593197     -15063.192      182.14156      187.3751       151.37016    
     44900  -15153.706      92.963343     -15060.742      182.09847      187.33724      151.43199    
     45000  -15147.708      89.510746     -15058.197      182.05734      187.3021       151.49382    
     45100  -15144.897      91.364902     -15053.532      182.01163      187.26373      151.55566    
     45200  -15140.134      91.860334     -15048.274      181.96974      187.22816      151.61749    
     45300  -15133.199      90.297549     -15042.902      181.9267       187.19098      151.67933    
     45400  -15129.459      94.795305     -15034.663      181.88305      187.15295      151.74116    
     45500  -15124.771      95.872813     -15028.898      181.84045      187.1166       151.80299    
     45600  -15119.756      92.076875     -15027.68       181.79835      187.07739      151.86483    
     45700  -15117.069      92.532442     -15024.536      181.7558       187.03962      151.92666    
     45800  -15111.598      91.239177     -15020.359      181.71201      187.00235      151.9885     
     45900  -15104.147      89.676626     -15014.47       181.66876      186.96654      152.05033    
     46000  -15103.379      96.812052     -15006.567      181.62416      186.92819      152.11217    
     46100  -15095.16       92.432325     -15002.727      181.58185      186.89073      152.174      
     46200  -15093.794      91.855624     -15001.938      181.53737      186.85343      152.23583    
     46300  -15088.414      90.896961     -14997.517      181.49471      186.81401      152.29767    
     46400  -15082.932      90.512411     -14992.42       181.45294      186.77582      152.3595     
     46500  -15078.928      92.416345     -14986.511      181.40769      186.73899      152.42134    
     46600  -15073.811      92.468429     -14981.343      181.36461      186.70025      152.48317    
     46700  -15069.36       91.102171     -14978.258      181.32202      186.66293      152.54501    
     46800  -15065.051      89.557242     -14975.494      181.27518      186.62588      152.60684    
     46900  -15061.904      91.652521     -14970.252      181.23401      186.58802      152.66867    
     47000  -15055.596      94.103214     -14961.493      181.18968      186.54902      152.73051    
     47100  -15048.633      92.553807     -14956.079      181.14516      186.51156      152.79234    
     47200  -15046.103      92.95432      -14953.149      181.10528      186.47192      152.85418    
     47300  -15040.8        91.30467      -14949.496      181.05946      186.4331       152.91601    
     47400  -15037.243      91.607306     -14945.635      181.01657      186.397        152.97785    
     47500  -15033.844      92.035964     -14941.808      180.97349      186.35613      153.03968    
     47600  -15027.825      90.113081     -14937.712      180.92787      186.3202       153.10151    
     47700  -15023.754      90.627103     -14933.127      180.88424      186.28203      153.16335    
     47800  -15017.979      90.639063     -14927.34       180.84267      186.24276      153.22518    
     47900  -15014.271      94.104783     -14920.167      180.79586      186.20681      153.28702    
     48000  -15005.692      92.35669      -14913.335      180.75337      186.16762      153.34885    
     48100  -15004.236      94.356768     -14909.879      180.71146      186.12757      153.41068    
     48200  -14999.113      90.184853     -14908.928      180.66613      186.0906       153.47252    
     48300  -14993.773      89.48665      -14904.286      180.62438      186.05125      153.53435    
     48400  -14987.962      89.78866      -14898.173      180.58147      186.01083      153.59619    
     48500  -14981.787      90.247808     -14891.539      180.53663      185.97501      153.65802    
     48600  -14977.564      93.239294     -14884.325      180.49377      185.93628      153.71986    
     48700  -14972.886      92.66336      -14880.223      180.45008      185.89781      153.78169    
     48800  -14968.84       89.561553     -14879.279      180.40388      185.86059      153.84352    
     48900  -14969.173      93.798014     -14875.375      180.36292      185.8228       153.90536    
     49000  -14960.746      90.723465     -14870.022      180.31835      185.78327      153.96719    
     49100  -14956.123      92.525298     -14863.597      180.27485      185.7454       154.02903    
     49200  -14950.45       94.25292      -14856.197      180.23502      185.70607      154.09086    
     49300  -14944.732      92.997968     -14851.734      180.18853      185.66683      154.1527     
     49400  -14942.503      91.5087       -14850.995      180.14632      185.63151      154.21453    
     49500  -14937.853      90.96042      -14846.892      180.10413      185.59094      154.27636    
     49600  -14931.864      90.290325     -14841.573      180.05755      185.55426      154.3382     
     49700  -14928.367      93.201623     -14835.165      180.01497      185.51918      154.40003    
     49800  -14919.57       92.42906      -14827.141      179.97311      185.47883      154.46187    
     49900  -14917.322      95.115792     -14822.206      179.92858      185.4406       154.5237     
     50000  -14914.343      92.575942     -14821.767      179.88637      185.40444      154.58553    
     50100  -14907.921      90.256548     -14817.665      179.84503      185.36363      154.64737    
     50200  -14902.882      90.856259     -14812.025      179.80284      185.3252       154.7092     
     50300  -14898.146      92.699942     -14805.446      179.75986      185.28896      154.77104    
     50400  -14892.902      93.631539     -14799.27       179.71645      185.24997      154.83287    
     50500  -14889.431      93.393626     -14796.037      179.6744       185.21367      154.89471    
     50600  -14883.781      89.624249     -14794.157      179.63077      185.17679      154.95654    
     50700  -14880.301      90.682433     -14789.619      179.58776      185.14013      155.01837    
     50800  -14875.465      92.110263     -14783.355      179.54563      185.10206      155.08021    
     50900  -14867.67       93.191876     -14774.478      179.5048       185.06368      155.14204    
     51000  -14861.87       94.225689     -14767.644      179.46332      185.02545      155.20388    
     51100  -14857.945      93.279966     -14764.665      179.42058      184.98856      155.26571    
     51200  -14853.828      92.473483     -14761.355      179.37971      184.95138      155.32755    
     51300  -14847.115      88.993432     -14758.122      179.33788      184.91339      155.38938    
     51400  -14845.18       91.058801     -14754.121      179.29468      184.87975      155.45121    
     51500  -14840.483      90.950791     -14749.532      179.25165      184.84164      155.51305    
     51600  -14837.455      91.893329     -14745.562      179.21173      184.80425      155.57488    
     51700  -14829.792      87.78276      -14742.009      179.16914      184.7691       155.63672    
     51800  -14825.818      89.948877     -14735.869      179.12799      184.73198      155.69855    
     51900  -14820.593      93.374175     -14727.219      179.08989      184.69336      155.76038    
     52000  -14812.57       90.756139     -14721.814      179.04817      184.65695      155.82222    
     52100  -14808.885      90.731271     -14718.154      179.00795      184.62042      155.88405    
     52200  -14804.884      90.798241     -14714.085      178.96711      184.58388      155.94589    
     52300  -14802.485      92.847351     -14709.638      178.92504      184.5495       156.00772    
     52400  -14797.1        92.598159     -14704.502      178.88406      184.51307      156.06956    
     52500  -14790.934      91.393359     -14699.54       178.84279      184.47928      156.13139    
     52600  -14784.123      89.554533     -14694.568      178.80214      184.44336      156.19322    
     52700  -14781.257      90.930184     -14690.326      178.7632       184.40528      156.25506    
     52800  -14776.778      90.073648     -14686.704      178.72334      184.37171      156.31689    
     52900  -14772.157      89.761286     -14682.395      178.68321      184.33484      156.37873    
     53000  -14766.305      90.653194     -14675.652      178.64715      184.29701      156.44056    
     53100  -14760.701      94.203948     -14666.497      178.60502      184.26361      156.5024     
     53200  -14755.338      93.679903     -14661.659      178.56489      184.22972      156.56423    
     53300  -14749.736      90.957529     -14658.779      178.52781      184.19214      156.62606    
     53400  -14744.373      89.989284     -14654.384      178.4863       184.16045      156.6879     
     53500  -14741.85       92.338661     -14649.512      178.44702      184.12635      156.74973    
     53600  -14736.661      91.811748     -14644.85       178.40931      184.08984      156.81157    
     53700  -14731.998      89.332439     -14642.665      178.37044      184.05657      156.8734     
     53800  -14728.474      89.872173     -14638.601      178.33307      184.02052      156.93523    
     53900  -14720.058      89.297867     -14630.76       178.29617      183.98554      156.99707    
     54000  -14715.286      92.083481     -14623.203      178.25671      183.95219      157.0589     
     54100  -14709.438      91.640825     -14617.797      178.2204       183.9174       157.12074    
     54200  -14704.992      91.098217     -14613.894      178.18311      183.88383      157.18257    
     54300  -14701.189      90.459621     -14610.729      178.14404      183.85126      157.24441    
     54400  -14696.917      89.252353     -14607.665      178.10713      183.81784      157.30624    
     54500  -14691.961      90.597065     -14601.364      178.07014      183.78339      157.36807    
     54600  -14681.654      90.889244     -14590.765      178.03212      183.75202      157.42991    
     54700  -14677.84       92.700633     -14585.14       177.9959       183.71784      157.49174    
     54800  -14672.654      90.169033     -14582.485      177.96069      183.68338      157.55358    
     54900  -14668.973      90.016882     -14578.956      177.92398      183.65269      157.61541    
     55000  -14664.5        90.757041     -14573.743      177.88732      183.61866      157.67725    
     55100  -14658.162      91.178855     -14566.983      177.85325      183.5846       157.73908    
     55200  -14651.958      94.525226     -14557.433      177.81604      183.55435      157.80091    
     55300  -14645.572      93.769475     -14551.802      177.7813       183.52059      157.86275    
     55400  -14641.935      92.260834     -14549.674      177.74557      183.48869      157.92458    
     55500  -14638.397      92.848136     -14545.549      177.70989      183.4593       157.98642    
     55600  -14630.58       88.946457     -14541.634      177.67571      183.42525      158.04825    
     55700  -14627.05       89.698858     -14537.351      177.63936      183.39434      158.11008    
     55800  -14622.299      90.251357     -14532.048      177.60572      183.36488      158.17192    
     55900  -14617.259      92.099995     -14525.159      177.5721       183.32957      158.23375    
     56000  -14610.201      93.058852     -14517.142      177.53727      183.30034      158.29559    
     56100  -14603.118      91.482409     -14511.636      177.504        183.26989      158.35742    
     56200  -14601.515      91.664068     -14509.851      177.47155      183.23647      158.41926    
     56300  -14594.565      89.566014     -14504.999      177.43502      183.20801      158.48109    
     56400  -14590.682      91.490579     -14499.191      177.4035       183.17721      158.54292    
     56500  -14585.876      93.220495     -14492.655      177.37034      183.14556      158.60476    
     56600  -14579.175      93.730371     -14485.445      177.33507      183.11724      158.66659    
     56700  -14571.729      92.487274     -14479.242      177.30546      183.08756      158.72843    
     56800  -14568.238      91.713604     -14476.524      177.27097      183.05593      158.79026    
     56900  -14564.952      92.023997     -14472.928      177.23754      183.0283       158.8521     
     57000  -14559.364      92.171243     -14467.192      177.20795      182.99794      158.91393    
     57100  -14551.605      91.112073     -14460.492      177.17466      182.96658      158.97576    
     57200  -14545.101      93.118816     -14451.982      177.1428       182.94032      159.0376     
     57300  -14539.116      93.698704     -14445.417      177.11248      182.90911      159.09943    
     57400  -14535.076      91.451254     -14443.625      177.08057      182.88057      159.16127    
     57500  -14530.53       91.537999     -14438.992      177.04848      182.85295      159.2231     
     57600  -14524.776      91.322148     -14433.453      177.01953      182.82353      159.28493    
     57700  -14520.273      91.546714     -14428.727      176.98692      182.79549      159.34677    
     57800  -14514.941      89.489966     -14425.452      176.95621      182.76736      159.4086     
     57900  -14510.343      89.300507     -14421.043      176.92867      182.73868      159.47044    
     58000  -14503.862      91.937641     -14411.925      176.89526      182.71165      159.53227    
     58100  -14494.594      91.687327     -14402.906      176.86705      182.68328      159.59411    
     58200  -14488.281      90.4422       -14397.839      176.83927      182.65428      159.65594    
     58300  -14484.452      90.042384     -14394.41       176.80586      182.62881      159.71777    
     58400  -14481.109      91.148674     -14389.96       176.77828      182.60075      159.77961    
     58500  -14473.689      90.075233     -14383.614      176.74993      182.57283      159.84144    
     58600  -14467.176      90.677135     -14376.499      176.71795      182.54819      159.90328    
     58700  -14461.503      91.257885     -14370.245      176.6915       182.52016      159.96511    
     58800  -14456.859      90.21952      -14366.639      176.66269      182.49271      160.02695    
     58900  -14451.986      89.650784     -14362.335      176.63396      182.46796      160.08878    
     59000  -14443.854      88.54098      -14355.313      176.60606      182.43904      160.15061    
     59100  -14438.249      91.299146     -14346.95       176.57752      182.41407      160.21245    
     59200  -14434.068      94.67116      -14339.397      176.54984      182.38871      160.27428    
     59300  -14426.625      90.960939     -14335.664      176.52212      182.36085      160.33612    
     59400  -14422.62       90.335372     -14332.285      176.49432      182.33816      160.39795    
     59500  -14417.347      91.267226     -14326.08       176.46649      182.31072      160.45978    
     59600  -14408.661      90.321827     -14318.339      176.44071      182.28587      160.52162    
     59700  -14401.317      92.25867      -14309.058      176.41184      182.26128      160.58345    
     59800  -14394.762      94.027695     -14300.734      176.3863       182.23475      160.64529    
     59900  -14389.545      91.364859     -14298.18       176.36058      182.20942      160.70712    
     60000  -14386.056      91.83842      -14294.217      176.33213      182.18577      160.76896    
     60100  -14381.134      91.571508     -14289.563      176.30716      182.16072      160.83079    
     60200  -14374.898      90.333499     -14284.564      176.28041      182.13591      160.89262    
     60300  -14368.644      91.074943     -14277.57       176.25341      182.11322      160.95446    
     60400  -14359.019      91.049031     -14267.97       176.22855      182.08754      161.01629    
     60500  -14354.166      93.974114     -14260.192      176.20295      182.06335      161.07813    
     60600  -14350.164      93.124093     -14257.04       176.17686      182.04031      161.13996    
     60700  -14343.34       91.209736     -14252.13       176.15332      182.01501      161.2018     
     60800  -14336.668      90.817515     -14245.851      176.1272       181.99161      161.26363    
     60900  -14332.157      92.338282     -14239.819      176.10203      181.96838      161.32546    
     61000  -14325.448      90.450735     -14234.997      176.07775      181.94372      161.3873     
     61100  -14318.534      87.610509     -14230.924      176.05071      181.92152      161.44913    
     61200  -14312.332      88.225574     -14224.106      176.02747      181.89821      161.51097    
     61300  -14304.526      91.857476     -14212.669      176.00308      181.87435      161.5728     
     61400  -14298.849      93.964695     -14204.885      175.97727      181.85418      161.63463    
     61500  -14293.868      93.453595     -14200.414      175.95353      181.82905      161.69647    
     61600  -14284.506      89.32924      -14195.177      175.93069      181.80647      161.7583     
     61700  -14280.225      90.876423     -14189.349      175.90496      181.78477      161.82014    
     61800  -14273.664      90.261125     -14183.403      175.88262      181.76061      161.88197    
     61900  -14266.045      89.471336     -14176.574      175.85983      181.73866      161.94381    
     62000  -14262.108      92.264179     -14169.844      175.83456      181.71639      162.00564    
     62100  -14256.834      92.243212     -14164.591      175.81157      181.69445      162.06747    
     62200  -14250.471      89.134518     -14161.337      175.78766      181.67191      162.12931    
     62300  -14244.898      90.959478     -14153.938      175.76443      181.65085      162.19114    
     62400  -14234.656      90.998298     -14143.658      175.74188      181.62875      162.25298    
     62500  -14228.09       92.936762     -14135.153      175.7188       181.6071       162.31481    
     62600  -14220.308      91.382668     -14128.925      175.69618      181.58505      162.37665    
     62700  -14215.809      90.441229     -14125.368      175.67398      181.56275      162.43848    
     62800  -14210.16       90.428149     -14119.732      175.65053      181.54155      162.50031    
     62900  -14202.719      90.698205     -14112.021      175.62815      181.52047      162.56215    
     63000  -14195.692      92.694258     -14102.998      175.60692      181.4983       162.62398    
     63100  -14185.991      92.271237     -14093.72       175.58278      181.47816      162.68582    
     63200  -14180.979      95.527541     -14085.451      175.56103      181.45751      162.74765    
     63300  -14172.89       90.794832     -14082.095      175.53932      181.43402      162.80949    
     63400  -14165.583      88.39492      -14077.188      175.51727      181.41502      162.87132    
     63500  -14162.467      91.099003     -14071.368      175.49587      181.39275      162.93315    
     63600  -14154.873      90.516251     -14064.357      175.4746       181.37071      162.99499    
     63700  -14144.479      88.528118     -14055.951      175.45261      181.35282      163.05682    
     63800  -14137.849      91.502482     -14046.347      175.42996      181.33         163.11866    
     63900  -14133.21       94.627754     -14038.583      175.40909      181.31001      163.18049    
     64000  -14125.671      90.972033     -14034.699      175.38736      181.29014      163.24232    
     64100  -14121.901      93.09556      -14028.805      175.3657       181.26791      163.30416    
     64200  -14111.234      89.516232     -14021.718      175.34528      181.24896      163.36599    
     64300  -14106.02       90.925069     -14015.095      175.32425      181.22774      163.42783    
     64400  -14098.331      88.307175     -14010.024      175.30337      181.20642      163.48966    
     64500  -14094.799      90.451655     -14004.347      175.28168      181.18759      163.5515     
     64600  -14085.597      90.761937     -13994.835      175.26065      181.16704      163.61333    
     64700  -14074.619      90.854087     -13983.765      175.24025      181.14586      163.67516    
     64800  -14069.766      93.657768     -13976.108      175.21921      181.12769      163.737      
     64900  -14063.649      93.108474     -13970.54       175.1983       181.10662      163.79883    
     65000  -14053.642      88.766567     -13964.875      175.17838      181.08576      163.86067    
     65100  -14048.487      90.453453     -13958.033      175.15663      181.0674       163.9225     
     65200  -14041.984      91.493556     -13950.49       175.1368       181.04685      163.98434    
     65300  -14036.44       92.394354     -13944.046      175.1168       181.02669      164.04617    
     65400  -14028.495      89.523485     -13938.971      175.09616      181.00717      164.108      
     65500  -14020.177      89.717615     -13930.46       175.07697      180.98681      164.16984    
     65600  -14011.98       92.402743     -13919.577      175.05605      180.96663      164.23167    
     65700  -14002.211      91.690188     -13910.521      175.03575      180.94784      164.29351    
     65800  -13994.893      90.300768     -13904.592      175.01534      180.92872      164.35534    
     65900  -13988.747      90.620754     -13898.127      174.99375      180.9094       164.41717    
     66000  -13982.566      91.671147     -13890.894      174.97439      180.8902       164.47901    
     66100  -13973.836      89.550961     -13884.285      174.95449      180.86955      164.54084    
     66200  -13966.025      87.967017     -13878.058      174.93346      180.851        164.60268    
     66300  -13960.993      90.719044     -13870.274      174.91461      180.83102      164.66451    
     66400  -13952.71       91.512146     -13861.198      174.89593      180.80952      164.72635    
     66500  -13945.267      92.349811     -13852.917      174.87562      180.79117      164.78818    
     66600  -13940          93.796032     -13846.204      174.85599      180.77131      164.85001    
     66700  -13929.988      89.831036     -13840.157      174.83615      180.75146      164.91185    
     66800  -13919.634      87.317219     -13832.317      174.81467      180.73401      164.97368    
     66900  -13914.455      93.126339     -13821.329      174.79491      180.71465      165.03552    
     67000  -13904.203      95.06171      -13809.141      174.77555      180.69483      165.09735    
     67100  -13896.763      93.693981     -13803.069      174.75495      180.67614      165.15919    
     67200  -13889.302      92.613303     -13796.689      174.73635      180.65537      165.22102    
     67300  -13881.992      91.300544     -13790.691      174.71737      180.63644      165.28285    
     67400  -13876.803      92.186109     -13784.616      174.69676      180.61676      165.34469    
     67500  -13866.503      89.691562     -13776.812      174.6779       180.59651      165.40652    
     67600  -13857.213      88.870727     -13768.343      174.65731      180.57899      165.46836    
     67700  -13852.024      91.02207      -13761.001      174.63736      180.55929      165.53019    
     67800  -13843.495      89.122598     -13754.372      174.61759      180.53996      165.59202    
     67900  -13835.679      89.381786     -13746.297      174.59688      180.52216      165.65386    
     68000  -13827.468      91.443175     -13736.025      174.5782       180.50193      165.71569    
     68100  -13814.887      91.066405     -13723.82       174.55892      180.48178      165.77753    
     68200  -13808.347      93.895811     -13714.451      174.53864      180.4629       165.83936    
     68300  -13801.897      92.510997     -13709.386      174.52073      180.44279      165.9012     
     68400  -13795.13       92.679721     -13702.451      174.50071      180.42265      165.96303    
     68500  -13786.437      90.763709     -13695.673      174.47983      180.40437      166.02486    
[...]
     81600  -16504.779      87.731328     -16417.048      175.36208      181.95914      174.12515    
     81700  -16511.074      90.475943     -16420.598      175.45183      182.05805      174.18698    
     81800  -16509.456      88.637343     -16420.818      175.54302      182.15552      174.24881    
     81900  -16505.758      89.15567      -16416.602      175.62965      182.25256      174.31065    
     82000  -16502.584      93.225346     -16409.358      175.71764      182.35458      174.37248    
     82100  -16502.592      96.729592     -16405.863      175.80731      182.45658      174.43432    
     82200  -16508.193      94.064039     -16414.129      175.89473      182.55575      174.49615    
     82300  -16514.008      87.457691     -16426.55       175.98473      182.65386      174.55799    
     82400  -16513.296      83.011081     -16430.285      176.07237      182.75258      174.61982    
     82500  -16508.114      86.916868     -16421.197      176.15867      182.85193      174.68165    
     82600  -16507.953      100.59688     -16407.356      176.24768      182.95097      174.74349    
     82700  -16504.542      99.265173     -16405.277      176.33608      183.05294      174.80532    
     82800  -16509.818      91.371021     -16418.447      176.42718      183.15383      174.86716    
     82900  -16514.42       84.332684     -16430.087      176.51904      183.24864      174.92899    
     83000  -16514.37       84.940162     -16429.43       176.60869      183.3428       174.99083    
     83100  -16512.645      93.873489     -16418.771      176.69669      183.43991      175.05266    
     83200  -16508.319      97.447253     -16410.872      176.78533      183.532        175.11449    
     83300  -16509.427      94.319314     -16415.108      176.86766      183.62422      175.17633    
     83400  -16512.554      89.074866     -16423.479      176.95007      183.71972      175.23816    
     83500  -16513.014      86.309607     -16426.704      177.03463      183.81099      175.3        
     83600  -16512.194      90.422973     -16421.771      177.11418      183.89755      175.36183    
     83700  -16508.436      94.578157     -16413.858      177.19417      183.98546      175.42366    
     83800  -16507.276      96.29042      -16410.986      177.27507      184.06882      175.4855     
     83900  -16507.237      90.124632     -16417.113      177.35468      184.15121      175.54733    
     84000  -16509.834      85.784681     -16424.05       177.4342       184.23341      175.60917    
     84100  -16511.834      87.913933     -16423.92       177.51416      184.31662      175.671      
     84200  -16509.03       91.35426      -16417.675      177.59215      184.39616      175.73284    
     84300  -16506.303      94.416643     -16411.887      177.67071      184.47226      175.79467    
     84400  -16510.161      96.34998      -16413.811      177.74082      184.55268      175.8565     
     84500  -16508.042      87.529757     -16420.513      177.80733      184.62871      175.91834    
     84600  -16512.698      89.32249      -16423.376      177.87763      184.69945      175.98017    
     84700  -16511.617      91.169317     -16420.448      177.94197      184.76959      176.04201    
     84800  -16509.654      93.382115     -16416.272      178.00131      184.83934      176.10384    
     84900  -16506.675      92.107189     -16414.568      178.0634       184.90891      176.16568    
     85000  -16506.557      91.061452     -16415.495      178.12672      184.9729       176.22751    
     85100  -16508.584      91.818718     -16416.766      178.18803      185.03788      176.28934    
     85200  -16509.796      91.481967     -16418.314      178.25155      185.10819      176.35118    
     85300  -16512.035      90.815518     -16421.219      178.31745      185.17135      176.41301    
     85400  -16515.048      90.142121     -16424.906      178.38039      185.23193      176.47485    
     85500  -16513.529      87.656516     -16425.872      178.44165      185.29664      176.53668    
     85600  -16511.122      90.117921     -16421.004      178.50016      185.35904      176.59851    
     85700  -16506.963      94.513625     -16412.449      178.5571       185.41571      176.66035    
     85800  -16505.662      96.969296     -16408.693      178.60999      185.47725      176.72218    
     85900  -16510.471      95.195608     -16415.275      178.65932      185.54094      176.78402    
     86000  -16512.995      87.741943     -16425.253      178.71099      185.59918      176.84585    
     86100  -16514.692      85.410892     -16429.281      178.76238      185.65816      176.90769    
     86200  -16513.251      88.689299     -16424.562      178.81291      185.71895      176.96952    
     86300  -16509.994      94.737829     -16415.256      178.86802      185.77557      177.03135    
     86400  -16508.362      96.796234     -16411.566      178.92672      185.83028      177.09319    
     86500  -16513.289      94.799918     -16418.489      178.98058      185.8904       177.15502    
     86600  -16512.313      85.068646     -16427.245      179.03821      185.94818      177.21686    
     86700  -16514.527      86.948535     -16427.579      179.09738      186.00231      177.27869    
     86800  -16511.494      92.03363      -16419.46       179.15241      186.05996      177.34053    
     86900  -16506.657      94.913467     -16411.744      179.20665      186.11832      177.40236    
     87000  -16505.082      93.067374     -16412.015      179.26275      186.17172      177.46419    
     87100  -16508.935      90.496498     -16418.438      179.31625      186.22492      177.52603    
     87200  -16512.209      88.067031     -16424.142      179.36772      186.28304      177.58786    
     87300  -16513.72       89.493135     -16424.226      179.4201       186.33977      177.6497     
     87400  -16513.305      93.382086     -16419.923      179.47346      186.39444      177.71153    
     87500  -16512.967      94.716832     -16418.25       179.52995      186.44773      177.77336    
     87600  -16511.727      90.298544     -16421.428      179.58707      186.50636      177.8352     
     87700  -16509.786      86.864522     -16422.922      179.64256      186.5647       177.89703    
     87800  -16508.501      90.170482     -16418.33       179.70102      186.61885      177.95887    
     87900  -16506.815      94.771793     -16412.043      179.76052      186.67606      178.0207     
     88000  -16506.91       94.668689     -16412.241      179.81334      186.73805      178.08254    
     88100  -16509.958      90.969809     -16418.989      179.86727      186.7952       178.14437    
     88200  -16511.872      86.53242      -16425.339      179.92407      186.85173      178.2062     
     88300  -16513.179      89.266811     -16423.912      179.97676      186.91252      178.26804    
     88400  -16507.74       90.8759       -16416.864      180.02919      186.96988      178.32987    
     88500  -16506.315      94.290607     -16412.024      180.08602      187.0251       178.39171    
     88600  -16508.887      92.782793     -16416.104      180.14433      187.08129      178.45354    
     88700  -16512.87       88.310646     -16424.559      180.19942      187.14212      178.51538    
     88800  -16514.983      87.07974      -16427.903      180.25851      187.20028      178.57721    
     88900  -16512.023      88.785198     -16423.238      180.32196      187.25651      178.63904    
     89000  -16508.603      93.808929     -16414.794      180.38475      187.31733      178.70088    
     89100  -16506.32       95.110087     -16411.21       180.44362      187.37996      178.76271    
     89200  -16508.193      92.647321     -16415.546      180.50368      187.44041      178.82455    
     89300  -16511.344      88.970221     -16422.374      180.56289      187.50147      178.88638    
     89400  -16512.656      87.368564     -16425.287      180.61882      187.56357      178.94821    
     89500  -16510.961      88.049249     -16422.912      180.67512      187.62534      179.01005    
     89600  -16509.858      91.307656     -16418.55       180.73454      187.68594      179.07188    
     89700  -16509.825      92.506677     -16417.318      180.79558      187.74827      179.13372    
     89800  -16511.125      91.820082     -16419.305      180.85792      187.81112      179.19555    
     89900  -16511.025      89.285703     -16421.74       180.92365      187.87327      179.25739    
     90000  -16511.74       90.250456     -16421.49       180.99375      187.93689      179.31922    
     90100  -16510.381      91.39277      -16418.988      181.06322      187.99857      179.38105    
     90200  -16508.704      92.25622      -16416.448      181.12928      188.06294      179.44289    
     90300  -16507.738      91.866657     -16415.871      181.19616      188.12812      179.50472    
     90400  -16508.111      91.502861     -16416.609      181.2616       188.19042      179.56656    
     90500  -16506.537      89.672468     -16416.865      181.32079      188.25399      179.62839    
     90600  -16507.789      91.76007      -16416.029      181.37833      188.32088      179.69023    
     90700  -16509.269      93.535716     -16415.734      181.43698      188.38587      179.75206    
     90800  -16509.306      91.504563     -16417.802      181.49548      188.44882      179.81389    
     90900  -16511.597      90.557777     -16421.039      181.55439      188.51499      179.87573    
     91000  -16511.131      88.54563      -16422.585      181.61685      188.58038      179.93756    
     91100  -16509.096      89.297429     -16419.799      181.68207      188.64596      179.9994     
     91200  -16507.987      92.83331      -16415.153      181.74688      188.71256      180.06123    
     91300  -16506.715      92.986426     -16413.729      181.81145      188.7794       180.12306    
     91400  -16508.297      91.741476     -16416.555      181.87684      188.84415      180.1849     
     91500  -16510.574      90.252017     -16420.322      181.93542      188.91121      180.24673    
     91600  -16511.666      89.964792     -16421.701      181.99338      188.97943      180.30857    
     91700  -16510.474      90.77585      -16419.698      182.05411      189.04089      180.3704     
     91800  -16509.479      92.261603     -16417.217      182.11269      189.10469      180.43224    
     91900  -16510.854      93.811816     -16417.042      182.16775      189.17506      180.49407    
     92000  -16508.36       88.726324     -16419.634      182.22648      189.24312      180.5559     
     92100  -16512.436      90.728654     -16421.708      182.28975      189.30657      180.61774    
     92200  -16512.225      91.358179     -16420.867      182.35537      189.37442      180.67957    
     92300  -16510.584      91.706944     -16418.877      182.42133      189.44527      180.74141    
     92400  -16513.062      92.730385     -16420.332      182.49205      189.51137      180.80324    
     92500  -16513.309      89.490723     -16423.818      182.56597      189.57683      180.86508    
     92600  -16513.206      89.425352     -16423.781      182.63159      189.65023      180.92691    
     92700  -16511.073      92.173849     -16418.899      182.69701      189.7216       180.98874    
     92800  -16508.521      94.427507     -16414.093      182.76379      189.78607      181.05058    
     92900  -16508.373      92.998627     -16415.374      182.82742      189.85468      181.11241    
     93000  -16510.257      88.963862     -16421.293      182.88992      189.92576      181.17425    
     93100  -16512.68       88.214821     -16424.465      182.952        189.98988      181.23608    
     93200  -16511.866      89.846408     -16422.019      183.021        190.0557       181.29791    
     93300  -16510.297      92.778234     -16417.519      183.09032      190.12538      181.35975    
     93400  -16509.594      93.668933     -16415.925      183.15864      190.19363      181.42158    
     93500  -16511.026      92.405766     -16418.62       183.2329       190.26044      181.48342    
     93600  -16510.691      89.257866     -16421.433      183.30838      190.32545      181.54525    
     93700  -16510.743      90.699579     -16420.044      183.37756      190.39213      181.60709    
     93800  -16509.695      93.889464     -16415.806      183.44425      190.45852      181.66892    
     93900  -16508.672      94.167305     -16414.505      183.51219      190.52663      181.73075    
     94000  -16510.586      92.065878     -16418.52       183.5736       190.59653      181.79259    
     94100  -16513.821      89.524123     -16424.297      183.63505      190.66542      181.85442    
     94200  -16512.578      86.341506     -16426.236      183.70022      190.73155      181.91626    
     94300  -16511.505      90.371757     -16421.134      183.76275      190.79998      181.97809    
     94400  -16506.785      93.714882     -16413.07       183.82842      190.86917      182.03993    
     94500  -16505.325      94.313853     -16411.011      183.89841      190.93305      182.10176    
     94600  -16509.844      92.017539     -16417.826      183.97234      190.99743      182.16359    
     94700  -16513.1        87.684551     -16425.415      184.04334      191.06353      182.22543    
     94800  -16515.56       88.5464       -16427.013      184.1137       191.13006      182.28726    
     94900  -16512.929      90.74269      -16422.186      184.18603      191.19252      182.3491     
     95000  -16508.187      93.075558     -16415.111      184.25447      191.25895      182.41093    
     95100  -16506.485      94.715846     -16411.77       184.31506      191.32856      182.47277    
     95200  -16510.597      95.493039     -16415.104      184.3788       191.39108      182.5346     
     95300  -16511.078      90.316242     -16420.761      184.44368      191.45497      182.59643    
     95400  -16512.348      89.078061     -16423.27       184.50097      191.52313      182.65827    
     95500  -16512.238      90.032503     -16422.205      184.56078      191.58778      182.7201     
     95600  -16511.247      91.9515       -16419.296      184.62734      191.65227      182.78194    
     95700  -16509.843      92.826243     -16417.017      184.68845      191.72045      182.84377    
     95800  -16509.178      92.030907     -16417.147      184.75111      191.78685      182.9056     
     95900  -16508.361      90.147481     -16418.213      184.82039      191.85079      182.96744    
     96000  -16508.674      89.867298     -16418.807      184.88693      191.91272      183.02927    
     96100  -16510.167      90.604493     -16419.563      184.95136      191.97626      183.09111    
     96200  -16512.012      91.165443     -16420.846      185.02001      192.03921      183.15294    
     96300  -16511.167      89.421911     -16421.745      185.0875       192.09964      183.21478    
     96400  -16512.22       91.457428     -16420.762      185.15111      192.16236      183.27661    
     96500  -16510.234      91.735377     -16418.499      185.21701      192.22535      183.33844    
     96600  -16509.238      92.173349     -16417.065      185.2841       192.28638      183.40028    
     96700  -16509.411      91.610799     -16417.8        185.34546      192.34827      183.46211    
     96800  -16511.279      91.083954     -16420.195      185.40423      192.41163      183.52395    
     96900  -16511.149      89.323825     -16421.825      185.46469      192.47413      183.58578    
     97000  -16512.271      91.580893     -16420.69       185.52352      192.53437      183.64762    
     97100  -16509.702      91.907703     -16417.795      185.58332      192.59565      183.70945    
     97200  -16507.766      92.731173     -16415.035      185.64128      192.65699      183.77128    
     97300  -16508.544      92.467139     -16416.077      185.69656      192.72038      183.83312    
     97400  -16509.761      90.34674      -16419.414      185.75524      192.78195      183.89495    
     97500  -16510.623      89.500954     -16421.122      185.81803      192.84035      183.95679    
     97600  -16510.975      90.261259     -16420.714      185.87697      192.90167      184.01862    
     97700  -16509.301      89.534388     -16419.766      185.93658      192.96444      184.08045    
     97800  -16510.348      91.443939     -16418.904      186.00017      193.02343      184.14229    
     97900  -16508.452      90.218761     -16418.233      186.06179      193.08215      184.20412    
     98000  -16508.409      90.093831     -16418.316      186.12053      193.14422      184.26596    
     98100  -16507.722      89.188892     -16418.533      186.17911      193.20665      184.32779    
     98200  -16509.995      90.941008     -16419.054      186.24055      193.26433      184.38963    
     98300  -16514.323      93.436149     -16420.887      186.30273      193.32158      184.45146    
     98400  -16513.323      90.160734     -16423.162      186.36356      193.38183      184.51329    
     98500  -16512.498      89.647943     -16422.85       186.42413      193.44073      184.57513    
     98600  -16510.117      90.941343     -16419.176      186.48573      193.4984       184.63696    
     98700  -16507.601      92.328546     -16415.272      186.54761      193.55819      184.6988     
     98800  -16509.776      94.441526     -16415.335      186.6086       193.6163       184.76063    
     98900  -16511.801      91.435095     -16420.366      186.66931      193.6729       184.82247    
     99000  -16513.697      87.829607     -16425.867      186.72795      193.72994      184.8843     
     99100  -16511.335      86.081956     -16425.253      186.78775      193.79337      184.94613    
     99200  -16509.313      91.556297     -16417.757      186.84587      193.86522      185.00797    
     99300  -16507.22       95.646163     -16411.573      186.907        193.94269      185.0698     
     99400  -16508.244      94.219865     -16414.024      186.96809      194.01862      185.13164    
     99500  -16511.594      90.445684     -16421.148      187.03064      194.08868      185.19347    
     99600  -16512.186      87.151385     -16425.034      187.0986       194.15617      185.2553     
     99700  -16512.729      90.284104     -16422.445      187.16827      194.2205       185.31714    
     99800  -16509.913      93.609834     -16416.304      187.23521      194.28092      185.37897    
     99900  -16508.717      95.6268       -16413.09       187.30079      194.34425      185.44081    
    100000  -16507.928      92.126392     -16415.802      187.36554      194.4061       185.50264    
Loop time of 55504.7 on 12 procs for 100000 steps with 2352 atoms

Performance: 0.156 ns/day, 154.180 hours/ns, 1.802 timesteps/s, 4.237 katom-step/s
41.0% CPU use with 12 MPI tasks x 1 OpenMP threads

MPI task timing breakdown:
Section |  min time  |  avg time  |  max time  |%varavg| %total
---------------------------------------------------------------
Pair    | 0.51462    | 590.81     | 2090       |3499.0 |  1.06
Neigh   | 0.011929   | 2.0664     | 8.0418     | 214.5 |  0.00
Comm    | 163.46     | 2139.4     | 6552       |5659.0 |  3.85
Output  | 219.07     | 223.57     | 228        |  18.7 |  0.40
Modify  | 40952      | 46098      | 48667      |1602.4 | 83.05
Other   |            | 6451       |            |       | 11.62

Nlocal:            196 ave         914 max           0 min
Histogram: 9 0 0 0 0 1 0 0 0 2
Nghost:        237.083 ave        1010 max           0 min
Histogram: 8 0 0 1 0 1 0 0 1 1
Neighs:              0 ave           0 max           0 min
Histogram: 12 0 0 0 0 0 0 0 0 0

Total # of neighbors = 0
Ave neighs/atom = 0
Neighbor list builds = 705
Dangerous builds = 0
Total wall time: 15:25:08
