LAMMPS (2 Aug 2023 - Update 3)
OMP_NUM_THREADS environment is not set. Defaulting to 1 thread. (src/comm.cpp:98)
  using 1 OpenMP thread(s) per MPI task
Reading data file ...
  orthogonal box = (-100 -100 -2.3312515) to (100 100 46.166171)
  4 by 4 by 1 MPI processor grid
  reading atoms ...
  1320 atoms
  read_data CPU = 0.488 seconds
360 atoms in group sr
Deleted 360 atoms, new total = 960
Replication is creating a 1x1x13 = 13 times larger system...
  orthogonal box = (-100 -100 -2.3312515) to (100 100 628.13525)
  2 by 2 by 4 MPI processor grid
  12480 atoms
  replicate CPU = 0.552 seconds
System init for write_data ...
WARNING: Communication cutoff is 0.0. No ghost atoms will be generated. Atoms may get lost. (src/comm_brick.cpp:210)
Reading airebo potential file CH.airebo with DATE: 2011-10-25
Reading airebo potential file CH.airebo with DATE: 2011-10-25
Reading airebo potential file CH.airebo with DATE: 2011-10-25
Neighbor list info ...
  update: every = 1 steps, delay = 0 steps, check = yes
  max neighbors/atom: 2000, page size: 100000
  master list distance cutoff = 13.2
  ghost atom cutoff = 13.2
  binsize = 6.6, bins = 31 31 96
  6 neighbor lists, perpetual/occasional/extra = 6 0 0
  (1) pair airebo, perpetual, skip from (5)
      attributes: full, newton on, ghost
      pair build: skip/ghost
      stencil: none
      bin: none
  (2) pair airebo, perpetual, skip from (5)
      attributes: full, newton on, ghost
      pair build: skip/ghost
      stencil: none
      bin: none
  (3) pair airebo, perpetual, skip from (5)
      attributes: full, newton on, ghost
      pair build: skip/ghost
      stencil: none
      bin: none
  (4) pair lj/cut, perpetual, skip from (6)
      attributes: half, newton on, cut 13
      pair build: skip
      stencil: none
      bin: none
  (5) neighbor class addition, perpetual
      attributes: full, newton on, ghost
      pair build: full/bin/ghost
      stencil: full/ghost/bin/3d
      bin: standard
  (6) neighbor class addition, perpetual
      attributes: half, newton on, cut 13
      pair build: half/bin/atomonly/newton
      stencil: half/bin/3d
      bin: standard
Setting up sd style minimization ...
  Unit style    : metal
  Current step  : 0
Per MPI rank memory allocation (min/avg/max) = 11.75 | 11.75 | 11.75 Mbytes
   Step          Temp          E_pair         E_mol          TotEng         Press     
         0   0             -92447.89       0             -92447.89      -25.745857    
         1   0             -92448.119      0             -92448.119     -25.739335    
Loop time of 1.10705 on 16 procs for 1 steps with 12480 atoms

45.8% CPU use with 16 MPI tasks x 1 OpenMP threads

Minimization stats:
  Stopping criterion = energy tolerance
  Energy initial, next-to-last, final = 
     -92447.8896643768  -92447.8896643768  -92448.1187710766
  Force two-norm initial, final = 7.80946 0.78678763
  Force max component initial, final = 0.069876905 0.0070494245
  Final line search alpha, max atom move = 1 0.0070494245
  Iterations, force evaluations = 1 2

MPI task timing breakdown:
Section |  min time  |  avg time  |  max time  |%varavg| %total
---------------------------------------------------------------
Pair    | 0.027437   | 0.049106   | 0.065278   |   5.6 |  4.44
Neigh   | 0          | 0          | 0          |   0.0 |  0.00
Comm    | 0.10276    | 0.2004     | 0.25733    |   8.3 | 18.10
Output  | 0          | 0          | 0          |   0.0 |  0.00
Modify  | 0          | 0          | 0          |   0.0 |  0.00
Other   |            | 0.8575     |            |       | 77.46

Nlocal:            780 ave         845 max         715 min
Histogram: 4 0 0 0 0 8 0 0 0 4
Nghost:           2844 ave        2909 max        2779 min
Histogram: 4 0 0 0 0 8 0 0 0 4
Neighs:              0 ave           0 max           0 min
Histogram: 16 0 0 0 0 0 0 0 0 0

Total # of neighbors = 0
Ave neighs/atom = 0
Neighbor list builds = 0
Dangerous builds = 0
Setting up Verlet run ...
  Unit style    : metal
  Current step  : 1
  Time step     : 0.001
Per MPI rank memory allocation (min/avg/max) = 12.38 | 12.47 | 12.76 Mbytes
   Step          Temp          E_pair         E_mol          TotEng         Press          Volume    
         1   300           -92448.119      0             -91964.208     -5.2436344      25218660     
Loop time of 0.0463922 on 16 procs for 0 steps with 12480 atoms

35.6% CPU use with 16 MPI tasks x 1 OpenMP threads

MPI task timing breakdown:
Section |  min time  |  avg time  |  max time  |%varavg| %total
---------------------------------------------------------------
Pair    | 0          | 0          | 0          |   0.0 |  0.00
Neigh   | 0          | 0          | 0          |   0.0 |  0.00
Comm    | 0          | 0          | 0          |   0.0 |  0.00
Output  | 0          | 0          | 0          |   0.0 |  0.00
Modify  | 0          | 0          | 0          |   0.0 |  0.00
Other   |            | 0.04639    |            |       |100.00

Nlocal:            780 ave         780 max         780 min
Histogram: 16 0 0 0 0 0 0 0 0 0
Nghost:           2844 ave        2844 max        2844 min
Histogram: 16 0 0 0 0 0 0 0 0 0
Neighs:              0 ave           0 max           0 min
Histogram: 16 0 0 0 0 0 0 0 0 0

Total # of neighbors = 0
Ave neighs/atom = 0
Neighbor list builds = 0
Dangerous builds = 0
WARNING: Dump 2 includes no atom IDs and is not sorted by ID. This may complicate post-processing tasks or visualization (src/dump.cpp:221)
Setting up Verlet run ...
  Unit style    : metal
  Current step  : 0
  Time step     : 0.001
Per MPI rank memory allocation (min/avg/max) = 13.88 | 13.97 | 14.26 Mbytes
   Step         PotEng         KinEng         TotEng           Lx             Ly             Lz      
         0  -92448.119      483.9112      -91964.208      200            200            630.4665     
       100  -92170.645      240.67485     -91929.97       199.99828      199.99876      630.78173    
       200  -92177.899      295.02891     -91882.871      199.99586      199.99695      631.09697    
       300  -92131.427      304.63133     -91826.796      199.99686      199.99881      631.4122     
       400  -92107.035      341.90062     -91765.134      199.99171      199.99528      631.72743    
       500  -92070.266      370.17158     -91700.095      199.99258      199.99843      632.04267    
       600  -92046.786      412.97514     -91633.811      199.98751      199.99693      632.3579     
       700  -92008.619      438.58189     -91570.037      199.98453      199.99844      632.67313    
       800  -91983.838      470.76452     -91513.073      199.97999      199.99935      632.98836    
       900  -91954.3        485.12815     -91469.172      199.97436      200.0007       633.3036     
      1000  -91951.198      504.92486     -91446.273      199.9694       200.00352      633.61883    
      1100  -91944.974      490.86252     -91454.111      199.96198      200.00556      633.93406    
      1200  -91960.315      482.27621     -91478.039      199.95459      200.00868      634.2493     
      1300  -91963.706      470.48817     -91493.218      199.94659      200.01218      634.56453    
      1400  -91961.354      473.5311      -91487.823      199.93664      200.01504      634.87976    
      1500  -91942.605      477.69321     -91464.911      199.92746      200.01971      635.195      
      1600  -91935.97       491.46343     -91444.506      199.9168       200.02403      635.51023    
      1700  -91940.035      496.68377     -91443.351      199.90643      200.02905      635.82546    
      1800  -91938.162      480.53339     -91457.629      199.89439      200.03277      636.1407     
      1900  -91951.575      482.0723      -91469.502      199.88336      200.0377       636.45593    
      2000  -91943.987      476.38892     -91467.598      199.87164      200.04203      636.77116    
      2100  -91932.77       482.21814     -91450.551      199.85884      200.04472      637.0864     
      2200  -91921.426      490.45438     -91430.972      199.84848      200.04966      637.40163    
      2300  -91917.087      494.42262     -91422.665      199.83578      200.05122      637.71686    
      2400  -91910.139      479.98244     -91430.157      199.82547      200.05448      638.0321     
      2500  -91920.893      479.88366     -91441.009      199.81367      200.05496      638.34733    
      2600  -91917.239      475.06707     -91442.172      199.80361      200.05601      638.66256    
      2700  -91913.487      483.85516     -91429.632      199.79346      200.05582      638.9778     
      2800  -91896.526      486.20647     -91410.319      199.78272      200.05366      639.29303    
      2900  -91883.724      486.07826     -91397.646      199.77473      200.05351      639.60826    
      3000  -91887.901      488.0021      -91399.898      199.76471      200.05026      639.9235     
      3100  -91895.723      486.51177     -91409.211      199.75568      200.04671      640.23873    
      3200  -91885.851      473.90679     -91411.944      199.74765      200.04314      640.55396    
      3300  -91881.692      480.0179      -91401.674      199.73841      200.03758      640.8692     
      3400  -91868.559      484.64916     -91383.91       199.73095      200.03296      641.18443    
      3500  -91857.804      488.03289     -91369.771      199.72197      200.02657      641.49966    
      3600  -91857.912      490.13911     -91367.773      199.71459      200.02126      641.8149     
      3700  -91855.72       480.6841      -91375.036      199.70557      200.01428      642.13013    
      3800  -91855.936      477.71457     -91378.221      199.69563      200.00699      642.44536    
      3900  -91850.266      480.94087     -91369.326      199.6878       200.00204      642.7606     
      4000  -91838.263      487.21343     -91351.049      199.67601      199.994        643.07583    
      4100  -91823.093      487.71211     -91335.381      199.66653      199.98895      643.39106    
      4200  -91817.01       487.27941     -91329.73       199.65502      199.98273      643.7063     
      4300  -91818.09       484.03993     -91334.05       199.64271      199.97745      644.02153    
      4400  -91818.124      480.71827     -91337.405      199.62966      199.97234      644.33676    
      4500  -91811.98       480.83825     -91331.142      199.61478      199.96695      644.652      
      4600  -91798.193      482.97411     -91315.219      199.60087      199.96415      644.96723    
      4700  -91785.931      487.87485     -91298.056      199.58399      199.95992      645.28246    
      4800  -91780.571      491.64029     -91288.931      199.56698      199.95722      645.59769    
      4900  -91777.427      487.40019     -91290.027      199.54997      199.95572      645.91293    
      5000  -91772.227      479.32554     -91292.902      199.52964      199.95218      646.22816    
      5100  -91763.191      474.24581     -91288.945      199.51155      199.95158      646.54339    
      5200  -91755.959      481.46292     -91274.496      199.49058      199.94889      646.85863    
      5300  -91739.897      483.21619     -91256.681      199.4708       199.94746      647.17386    
      5400  -91731.494      487.72455     -91243.769      199.45017      199.94563      647.48909    
      5500  -91723.643      484.06782     -91239.575      199.42838      199.94265      647.80433    
      5600  -91721.665      481.27069     -91240.394      199.40847      199.9416       648.11956    
      5700  -91714.017      476.00554     -91238.011      199.38565      199.93727      648.43479    
      5800  -91702.588      475.55515     -91227.033      199.36566      199.93527      648.75003    
      5900  -91697.166      487.61418     -91209.552      199.3441       199.93071      649.06526    
      6000  -91682.614      489.40353     -91193.21       199.32316      199.92538      649.38049    
      6100  -91671.127      486.89079     -91184.236      199.30411      199.92082      649.69573    
      6200  -91666.074      483.39667     -91182.678      199.28278      199.91242      650.01096    
      6300  -91666.196      484.51958     -91181.676      199.26431      199.90584      650.32619    
      6400  -91655.403      480.74745     -91174.655      199.24428      199.89636      650.64143    
      6500  -91639.376      481.20312     -91158.173      199.22528      199.88656      650.95666    
      6600  -91627.715      488.12543     -91139.59       199.2077       199.87744      651.27189    
      6700  -91620.953      493.62058     -91127.333      199.18745      199.86451      651.58713    
      6800  -91607.499      483.41737     -91124.082      199.17108      199.85412      651.90236    
      6900  -91606.405      483.23005     -91123.175      199.15096      199.83943      652.21759    
      7000  -91594.726      479.62612     -91115.1        199.13279      199.82633      652.53283    
      7100  -91581.441      481.57219     -91099.869      199.1155       199.81381      652.84806    
      7200  -91569.32       487.6353      -91081.685      199.0939       199.79713      653.16329    
      7300  -91556.53       488.65842     -91067.871      199.07662      199.78529      653.47853    
      7400  -91550.412      488.9438      -91061.468      199.05434      199.76913      653.79376    
      7500  -91543.045      484.47903     -91058.566      199.03318      199.75498      654.10899    
      7600  -91531.985      481.51545     -91050.469      199.01165      199.74127      654.42423    
      7700  -91512.925      478.63893     -91034.286      198.98671      199.72542      654.73946    
      7800  -91500.012      484.18198     -91015.83       198.9648       199.71374      655.05469    
      7900  -91489.054      487.72309     -91001.331      198.93759      199.69826      655.36993    
      8000  -91477.66       483.20012     -90994.46       198.91211      199.68578      655.68516    
      8100  -91474.641      483.56297     -90991.078      198.88489      199.67327      656.00039    
      8200  -91463.734      479.81919     -90983.915      198.85455      199.6594       656.31563    
      8300  -91451.037      482.16987     -90968.867      198.82619      199.64911      656.63086    
      8400  -91436.034      486.58        -90949.454      198.79403      199.6362       656.94609    
      8500  -91422.24       488.36733     -90933.873      198.76328      199.62613      657.26133    
      8600  -91408.089      483.60084     -90924.488      198.72965      199.61428      657.57656    
      8700  -91403.635      484.86416     -90918.771      198.6958       199.6027       657.89179    
      8800  -91391.849      480.71192     -90911.138      198.66293      199.59262      658.20702    
      8900  -91381.064      483.80552     -90897.258      198.62637      199.57946      658.52226    
      9000  -91364.173      485.31348     -90878.86       198.59305      199.56952      658.83749    
      9100  -91342.438      481.46076     -90860.977      198.55669      199.5567       659.15272    
      9200  -91337.771      489.11044     -90848.66       198.52076      199.54399      659.46796    
      9300  -91321.977      482.39879     -90839.578      198.48579      199.53162      659.78319    
      9400  -91312.75       481.69988     -90831.05       198.44882      199.51666      660.09842    
      9500  -91299.412      480.60167     -90818.81       198.41418      199.50284      660.41366    
      9600  -91278.873      476.9929      -90801.88       198.37836      199.4864       660.72889    
      9700  -91269.163      486.4714      -90782.692      198.34342      199.46958      661.04412    
      9800  -91254.556      487.9389      -90766.617      198.30959      199.45272      661.35936    
      9900  -91240.345      483.75467     -90756.59       198.27434      199.4329       661.67459    
     10000  -91227.42       478.6466      -90748.774      198.24098      199.41379      661.98982    
     10100  -91215.931      478.38268     -90737.548      198.20729      199.39332      662.30506    
     10200  -91203.798      482.86294     -90720.935      198.17276      199.37104      662.62029    
     10300  -91181.512      480.47324     -90701.039      198.14046      199.35018      662.93552    
     10400  -91168.676      486.50274     -90682.173      198.10593      199.32629      663.25076    
     10500  -91156.759      488.03546     -90668.724      198.07271      199.30311      663.56599    
     10600  -91143.256      484.10446     -90659.151      198.03924      199.27907      663.88122    
     10700  -91133.118      483.65078     -90649.467      198.00439      199.2539       664.19646    
     10800  -91113.647      478.50331     -90635.144      197.97034      199.22971      664.51169    
     10900  -91097.168      482.30512     -90614.863      197.9348       199.20458      664.82692    
     11000  -91079.851      485.82889     -90594.022      197.89881      199.17996      665.14216    
     11100  -91064.705      486.81963     -90577.885      197.86176      199.15521      665.45739    
     11200  -91048.175      480.255       -90567.92       197.82439      199.13073      665.77262    
     11300  -91034.296      475.26919     -90559.027      197.7858       199.10647      666.08786    
     11400  -91026.939      481.41812     -90545.521      197.74658      199.08256      666.40309    
     11500  -91010.657      484.99595     -90525.661      197.70618      199.05883      666.71832    
     11600  -90986.944      483.194       -90503.75       197.66543      199.03614      667.03356    
     11700  -90967.515      483.00352     -90484.511      197.62292      199.0134       667.34879    
     11800  -90959.616      487.94575     -90471.671      197.58053      198.9921       667.66402    
     11900  -90941.985      479.83048     -90462.154      197.53675      198.97082      667.97926    
     12000  -90926.629      477.93047     -90448.699      197.49141      198.94901      668.29449    
     12100  -90910.632      481.90698     -90428.725      197.44718      198.92931      668.60972    
     12200  -90892.475      488.57931     -90403.896      197.40114      198.90858      668.92496    
     12300  -90877.494      490.91805     -90386.576      197.35536      198.88884      669.24019    
     12400  -90860.455      486.99897     -90373.456      197.30953      198.86909      669.55542    
     12500  -90849.615      489.42932     -90360.186      197.26235      198.84819      669.87066    
     12600  -90827.046      481.86654     -90345.179      197.21716      198.82914      670.18589    
     12700  -90809.544      480.13635     -90329.408      197.17063      198.80835      670.50112    
     12800  -90790.86       476.56574     -90314.295      197.12509      198.78785      670.81635    
     12900  -90777.054      481.19094     -90295.863      197.08043      198.76743      671.13159    
     13000  -90756.399      483.83869     -90272.56       197.03531      198.74538      671.44682    
     13100  -90738.167      486.78164     -90251.385      196.99254      198.72431      671.76205    
     13200  -90723.914      487.30787     -90236.606      196.94889      198.70139      672.07729    
     13300  -90707.967      479.64602     -90228.321      196.90697      198.67854      672.39252    
     13400  -90688.568      478.07361     -90210.494      196.86605      198.6549       672.70775    
     13500  -90668.607      480.60366     -90188.004      196.82549      198.63015      673.02299    
     13600  -90647.969      482.8426      -90165.127      196.78668      198.60562      673.33822    
     13700  -90631.709      485.84873     -90145.861      196.74809      198.57983      673.65345    
     13800  -90612.54       483.13674     -90129.403      196.71072      198.55388      673.96869    
     13900  -90598.141      484.70577     -90113.435      196.67369      198.52694      674.28392    
     14000  -90577.553      482.09944     -90095.453      196.63768      198.49996      674.59915    
     14100  -90558.995      482.34388     -90076.651      196.60237      198.47317      674.91439    
     14200  -90540.598      484.48011     -90056.118      196.56694      198.44509      675.22962    
     14300  -90518.596      484.67011     -90033.926      196.53334      198.41859      675.54485    
     14400  -90497.126      487.99746     -90009.128      196.49868      198.39092      675.86009    
     14500  -90485.305      495.11839     -89990.187      196.46469      198.36449      676.17532    
     14600  -90465.145      484.22942     -89980.916      196.43069      198.33893      676.49055    
     14700  -90447.193      482.41253     -89964.78       196.39575      198.31324      676.80579    
     14800  -90426.656      482.27642     -89944.38       196.3621       198.28932      677.12102    
     14900  -90407.399      487.79834     -89919.601      196.327        198.26528      677.43625    
     15000  -90380.915      485.46718     -89895.448      196.29329      198.24324      677.75149    
     15100  -90362.662      484.76376     -89877.898      196.25757      198.22049      678.06672    
     15200  -90351.043      483.02201     -89868.021      196.22256      198.19976      678.38195    
     15300  -90330.6        480.30056     -89850.299      196.18811      198.18045      678.69719    
     15400  -90310.184      482.49578     -89827.689      196.15228      198.16078      679.01242    
     15500  -90286.585      486.02547     -89800.56       196.11706      198.14275      679.32765    
     15600  -90262.301      483.44135     -89778.86       196.08262      198.1262       679.64289    
     15700  -90250.377      487.13137     -89763.245      196.04667      198.10886      679.95812    
     15800  -90234.081      484.88081     -89749.2        196.01253      198.09382      680.27335    
     15900  -90211.151      482.5081      -89728.643      195.97801      198.07849      680.58859    
     16000  -90186.084      481.24337     -89704.841      195.94432      198.06375      680.90382    
     16100  -90164.824      485.22227     -89679.601      195.91103      198.04905      681.21905    
     16200  -90138.819      483.10094     -89655.718      195.87857      198.03479      681.53429    
     16300  -90118.692      481.15682     -89637.536      195.84732      198.02096      681.84952    
     16400  -90103.946      478.38329     -89625.563      195.81548      198.00573      682.16475    
     16500  -90084.035      478.00202     -89606.033      195.78666      197.99242      682.47999    
     16600  -90062.246      482.28335     -89579.963      195.75706      197.97686      682.79522    
     16700  -90038.99       483.50523     -89555.484      195.72953      197.96227      683.11045    
     16800  -90015.643      483.30368     -89532.34       195.70278      197.9469       683.42568    
     16900  -89993.861      483.77989     -89510.081      195.6769       197.93083      683.74092    
     17000  -89972.283      484.35049     -89487.932      195.65339      197.91541      684.05615    
     17100  -89951.616      484.14766     -89467.468      195.62962      197.89803      684.37138    
     17200  -89931.774      482.89878     -89448.875      195.60747      197.88098      684.68662    
     17300  -89909.288      479.8929      -89429.395      195.58702      197.86409      685.00185    
     17400  -89890.991      485.93455     -89405.056      195.56595      197.84528      685.31708    
     17500  -89863.023      487.60325     -89375.42       195.54766      197.82809      685.63232    
     17600  -89840.281      488.18377     -89352.097      195.52935      197.81001      685.94755    
     17700  -89821.327      486.5038      -89334.823      195.51101      197.79101      686.26278    
     17800  -89799.441      483.84333     -89315.598      195.49435      197.77353      686.57802    
     17900  -89778.502      485.04527     -89293.457      195.47633      197.75432      686.89325    
     18000  -89756.666      487.43493     -89269.231      195.46042      197.73752      687.20848    
     18100  -89728.105      485.01717     -89243.088      195.4439       197.72004      687.52372    
     18200  -89704.397      489.61796     -89214.779      195.42716      197.70303      687.83895    
     18300  -89683.966      491.46053     -89192.506      195.41141      197.68742      688.15418    
     18400  -89662.959      483.62556     -89179.334      195.39456      197.67157      688.46942    
     18500  -89642.187      482.69157     -89159.495      195.37817      197.65703      688.78465    
     18600  -89623.262      488.1421      -89135.12       195.36104      197.64317      689.09988    
     18700  -89592.427      486.58865     -89105.839      195.34403      197.63021      689.41512    
     18800  -89564.344      487.23852     -89077.105      195.32663      197.61856      689.73035    
     18900  -89546.874      489.77749     -89057.097      195.30893      197.60796      690.04558    
     19000  -89520.172      477.70535     -89042.467      195.29043      197.59733      690.36082    
     19100  -89500.509      481.74176     -89018.768      195.27191      197.58781      690.67605    
     19200  -89474.457      483.97816     -88990.479      195.25335      197.57907      690.99128    
     19300  -89449.189      486.32799     -88962.861      195.2349       197.57104      691.30652    
     19400  -89420.448      481.12523     -88939.323      195.21534      197.56291      691.62175    
     19500  -89405.222      483.06039     -88922.161      195.19631      197.55576      691.93698    
     19600  -89379.78       476.50404     -88903.276      195.17688      197.54868      692.25222    
     19700  -89359.425      483.80455     -88875.621      195.15778      197.54212      692.56745    
     19800  -89331.757      486.22678     -88845.53       195.13878      197.53548      692.88268    
     19900  -89303.819      482.92357     -88820.896      195.11945      197.5284       693.19792    
     20000  -89279.47       481.41256     -88798.058      195.10175      197.52213      693.51315    
     20100  -89257.799      482.52906     -88775.27       195.08337      197.51413      693.82838    
     20200  -89233.623      483.75475     -88749.868      195.06632      197.50657      694.14362    
     20300  -89199.333      479.84584     -88719.487      195.05009      197.49894      694.45885    
     20400  -89181.281      490.71694     -88690.564      195.03266      197.48921      694.77408    
     20500  -89151.406      482.40102     -88669.005      195.01819      197.48114      695.08932    
     20600  -89136.701      483.03602     -88653.665      195.0028       197.47081      695.40455    
     20700  -89113.705      485.1002      -88628.605      194.98807      197.45965      695.71978    
     20800  -89082.756      483.19998     -88599.556      194.97634      197.45029      696.03501    
     20900  -89055.109      485.34472     -88569.765      194.962        197.43629      696.35025    
     21000  -89026.788      483.83306     -88542.955      194.9515       197.42534      696.66548    
     21100  -89012.114      486.84189     -88525.272      194.94022      197.41227      696.98071    
     21200  -88991.264      485.07087     -88506.193      194.92855      197.39764      697.29595    
     21300  -88959.086      480.73672     -88478.349      194.92018      197.38549      697.61118    
     21400  -88927.166      481.70453     -88445.461      194.90928      197.36987      697.92641    
     21500  -88903.576      485.64535     -88417.93       194.9013       197.35652      698.24165    
     21600  -88875.559      481.21523     -88394.343      194.89276      197.34245      698.55688    
     21700  -88857.216      482.10565     -88375.11       194.8826       197.3265       698.87211    
     21800  -88835.531      478.84819     -88356.682      194.87525      197.31407      699.18735    
     21900  -88800.932      474.6133      -88326.319      194.86472      197.29881      699.50258    
     22000  -88780.551      484.55907     -88295.992      194.8563       197.28584      699.81781    
     22100  -88749.84       483.74397     -88266.096      194.8466       197.27274      700.13305    
     22200  -88724.753      488.68036     -88236.073      194.83573      197.25929      700.44828    
     22300  -88695.732      487.02029     -88208.712      194.82689      197.24884      700.76351    
     22400  -88665.581      479.78136     -88185.8        194.81401      197.23563      701.07875    
     22500  -88644.356      478.29136     -88166.065      194.80286      197.22556      701.39398    
     22600  -88617.877      476.18817     -88141.689      194.79096      197.21612      701.70921    
     22700  -88591.049      485.1054      -88105.944      194.77579      197.20481      702.02445    
     22800  -88558.904      483.3801      -88075.524      194.76405      197.19826      702.33968    
     22900  -88537.732      488.4783      -88049.254      194.74768      197.18819      702.65491    
     23000  -88510.336      485.29442     -88025.042      194.73278      197.18089      702.97015    
     23100  -88486.881      483.00923     -88003.872      194.7176       197.17429      703.28538    
     23200  -88460.235      480.45576     -87979.779      194.6989       197.1654       703.60061    
     23300  -88429.914      484.56188     -87945.352      194.68397      197.16085      703.91585    
     23400  -88403.041      490.73066     -87912.31       194.66527      197.15297      704.23108    
     23500  -88370.825      484.80937     -87886.016      194.64782      197.14668      704.54631    
     23600  -88344.893      481.29388     -87863.599      194.63126      197.14109      704.86155    
     23700  -88322.893      481.00091     -87841.892      194.61212      197.13225      705.17678    
     23800  -88296.437      478.93676     -87817.5        194.59659      197.12697      705.49201    
     23900  -88261.458      477.95711     -87783.501      194.57848      197.11812      705.80725    
     24000  -88232.276      483.25325     -87749.022      194.56212      197.11058      706.12248    
     24100  -88207.683      488.03428     -87719.649      194.54711      197.10339      706.43771    
     24200  -88181.036      485.90455     -87695.131      194.52982      197.09268      706.75295    
     24300  -88153.329      478.55536     -87674.774      194.51646      197.08462      707.06818    
     24400  -88126.524      477.94084     -87648.583      194.5012       197.07325      707.38341    
     24500  -88101.079      488.67143     -87612.407      194.48747      197.06196      707.69865    
     24600  -88064.725      485.83909     -87578.886      194.47559      197.05144      708.01388    
     24700  -88033.903      480.79653     -87553.107      194.46138      197.03743      708.32911    
     24800  -88012.452      482.45272     -87529.999      194.45064      197.02583      708.64434    
     24900  -87987.206      481.54997     -87505.656      194.43869      197.01177      708.95958    
     25000  -87959.407      485.37249     -87474.034      194.42667      196.99681      709.27481    
     25100  -87920.48       483.80707     -87436.673      194.41747      196.98377      709.59004    
     25200  -87892.517      484.27204     -87408.245      194.40548      196.96704      709.90528    
     25300  -87868.07       483.50961     -87384.561      194.39624      196.95257      710.22051    
     25400  -87846.149      484.92367     -87361.225      194.38574      196.93613      710.53574    
     25500  -87808.501      477.8927      -87330.609      194.37481      196.91912      710.85098    
     25600  -87778.181      486.91147     -87291.27       194.36647      196.90485      711.16621    
     25700  -87750.697      488.44519     -87262.252      194.35403      196.88677      711.48144    
     25800  -87723.835      485.10253     -87238.732      194.34369      196.8708       711.79668    
     25900  -87696.16       481.19104     -87214.969      194.33281      196.85505      712.11191    
     26000  -87665.816      480.54422     -87185.272      194.31925      196.83748      712.42714    
     26100  -87633.883      487.76366     -87146.12       194.30897      196.82396      712.74238    
     26200  -87603.005      488.39056     -87114.615      194.2938       196.80681      713.05761    
     26300  -87578.862      488.23868     -87090.623      194.28061      196.79243      713.37284    
     26400  -87546.602      480.17422     -87066.428      194.26679      196.77898      713.68808    
     26500  -87521.468      482.87774     -87038.59       194.24934      196.76337      714.00331    
     26600  -87487.599      480.84769     -87006.751      194.23522      196.75241      714.31854    
     26700  -87455.279      489.05071     -86966.228      194.21694      196.73874      714.63378    
     26800  -87426.639      488.93352     -86937.705      194.19928      196.72675      714.94901    
     26900  -87399.956      484.79811     -86915.158      194.1822       196.71684      715.26424    
     27000  -87367.664      477.77429     -86889.889      194.16133      196.70436      715.57948    
     27100  -87342.166      481.6105      -86860.556      194.14285      196.69523      715.89471    
     27200  -87310.264      484.48748     -86825.776      194.12278      196.68502      716.20994    
     27300  -87275.417      487.69697     -86787.72       194.10189      196.67449      716.52518    
     27400  -87249.582      490.2832      -86759.298      194.08248      196.66603      716.84041    
     27500  -87214.386      480.38177     -86734.005      194.06071      196.65538      717.15564    
     27600  -87187.15       479.08268     -86708.067      194.04021      196.64589      717.47088    
     27700  -87165.108      485.37433     -86679.734      194.02005      196.63601      717.78611    
     27800  -87125.718      480.72224     -86644.996      193.99859      196.62442      718.10134    
     27900  -87094.891      488.5834      -86606.307      193.9801       196.61478      718.41658    
     28000  -87063.37       485.70412     -86577.666      193.95955      196.60183      718.73181    
     28100  -87040.084      487.50573     -86552.578      193.94038      196.58924      719.04704    
     28200  -87007.863      482.2448      -86525.618      193.92271      196.57709      719.36228    
     28300  -86978.821      484.51603     -86494.305      193.90278      196.56132      719.67751    
     28400  -86941.572      489.14278     -86452.429      193.88629      196.54777      719.99274    
     28500  -86909.265      489.49844     -86419.767      193.86843      196.53128      720.30798    
     28600  -86878.627      482.49662     -86396.13       193.8512       196.51402      720.62321    
     28700  -86852.154      481.12885     -86371.025      193.83631      196.49788      720.93844    
     28800  -86822.973      481.17888     -86341.794      193.81916      196.47802      721.25367    
     28900  -86794.48       487.49543     -86306.984      193.8044       196.45968      721.56891    
     29000  -86757.768      489.80325     -86267.965      193.78963      196.44067      721.88414    
     29100  -86726.956      488.51636     -86238.439      193.77374      196.41941      722.19937    
     29200  -86693.787      481.59393     -86212.193      193.76038      196.40013      722.51461    
     29300  -86670.58       486.53786     -86184.042      193.74517      196.37873      722.82984    
     29400  -86637.317      483.31966     -86153.997      193.73067      196.35744      723.14507    
     29500  -86605.989      484.82447     -86121.165      193.71672      196.33702      723.46031    
     29600  -86570.848      491.57587     -86079.272      193.70124      196.31518      723.77554    
     29700  -86534.773      486.85339     -86047.919      193.687        196.29517      724.09077    
     29800  -86509.112      486.08244     -86023.03       193.67097      196.27409      724.40601    
     29900  -86478.304      482.39318     -85995.911      193.65483      196.25357      724.72124    
     30000  -86452.783      487.07589     -85965.707      193.63952      196.23472      725.03647    
     30100  -86412.977      480.85069     -85932.126      193.62131      196.21385      725.35171    
     30200  -86380.089      489.99812     -85890.091      193.60494      196.19567      725.66694    
     30300  -86346.956      489.68603     -85857.27       193.58638      196.17674      725.98217    
     30400  -86316.847      485.53536     -85831.312      193.5668       196.15818      726.29741    
     30500  -86286.026      482.27154     -85803.755      193.54824      196.14199      726.61264    
     30600  -86257.94       485.40079     -85772.539      193.52648      196.12429      726.92787    
     30700  -86219.41       481.97871     -85737.432      193.50591      196.10867      727.24311    
     30800  -86182.607      487.26539     -85695.341      193.48391      196.09244      727.55834    
     30900  -86150.194      484.95977     -85665.234      193.46066      196.07634      727.87357    
     31000  -86124.944      485.33582     -85639.608      193.43809      196.06177      728.18881    
     31100  -86093.194      482.28085     -85610.913      193.41295      196.0461       728.50404    
     31200  -86057.858      478.85301     -85579.005      193.38902      196.03222      728.81927    
     31300  -86026.948      484.63726     -85542.31       193.36372      196.01748      729.13451    
     31400  -85988.376      487.83474     -85500.541      193.33837      196.00265      729.44974    
     31500  -85955.53       484.48725     -85471.043      193.31365      195.98848      729.76497    
     31600  -85927.168      481.96775     -85445.2        193.28758      195.97237      730.08021    
     31700  -85897.724      480.62495     -85417.099      193.26306      195.95741      730.39544    
     31800  -85870.398      484.92382     -85385.474      193.23801      195.9416       730.71067    
     31900  -85829.101      479.69043     -85349.411      193.21322      195.92536      731.02591    
     32000  -85798.294      489.82765     -85308.466      193.18909      195.90828      731.34114    
     32100  -85764.676      488.17789     -85276.498      193.16589      195.89066      731.65637    
     32200  -85734.088      483.27047     -85250.817      193.14305      195.87228      731.97161    
     32300  -85705.866      484.6837      -85221.182      193.12001      195.85267      732.28684    
     32400  -85671.922      483.67769     -85188.244      193.0989       195.83384      732.60207    
     32500  -85641.035      487.85693     -85153.178      193.07696      195.8131       732.91731    
     32600  -85601.773      486.40796     -85115.365      193.05643      195.7922       733.23254    
     32700  -85561.986      488.57748     -85073.409      193.03707      195.7709       733.54777    
     32800  -85532.151      489.20971     -85042.942      193.01741      195.74791      733.863      
     32900  -85501.686      485.72405     -85015.962      192.99927      195.72539      734.17824    
     33000  -85469.037      482.33497     -84986.702      192.98034      195.70163      734.49347    
     33100  -85440.498      485.84827     -84954.65       192.96194      195.67774      734.8087     
     33200  -85401.332      483.56291     -84917.769      192.9447       195.65467      735.12394    
     33300  -85364.886      488.07842     -84876.808      192.926        195.62967      735.43917    
     33400  -85339.65       495.34978     -84844.3        192.90804      195.60504      735.7544     
     33500  -85297.312      481.48899     -84815.823      192.89062      195.5808       736.06964    
     33600  -85266.116      480.7141      -84785.402      192.87203      195.55575      736.38487    
     33700  -85235.887      483.32983     -84752.557      192.85352      195.53159      736.7001     
     33800  -85201.937      483.95128     -84717.986      192.8339       195.50693      737.01534    
     33900  -85166.708      486.0877      -84680.621      192.81486      195.48349      737.33057    
     34000  -85127.819      487.43655     -84640.383      192.79485      195.45974      737.6458     
     34100  -85091.238      487.35055     -84603.888      192.77389      195.43591      737.96104    
     34200  -85062.494      481.77918     -84580.715      192.75338      195.4137       738.27627    
     34300  -85031.27       479.19485     -84552.075      192.73127      195.39098      738.5915     
     34400  -85006.067      487.66553     -84518.401      192.70862      195.36935      738.90674    
     34500  -84961.634      481.14316     -84480.491      192.68607      195.34889      739.22197    
     34600  -84928.517      486.60885     -84441.908      192.66186      195.32782      739.5372     
     34700  -84894.327      487.92773     -84406.399      192.63803      195.30825      739.85244    
     34800  -84863.595      482.58399     -84381.011      192.61343      195.28915      740.16767    
     34900  -84836.345      483.37572     -84352.969      192.58761      195.2696       740.4829     
     35000  -84797.362      480.60614     -84316.756      192.56294      195.25222      740.79814    
     35100  -84759.519      482.92619     -84276.593      192.53648      195.23429      741.11337    
     35200  -84728.808      488.69033     -84240.118      192.50958      195.21642      741.4286     
     35300  -84688.16       481.60168     -84206.558      192.48406      195.20015      741.74384    
     35400  -84659.737      486.18708     -84173.55       192.45662      195.1825       742.05907    
     35500  -84623.697      482.9441      -84140.752      192.43076      195.16623      742.3743     
     35600  -84588.254      482.06633     -84106.187      192.40392      195.14917      742.68954    
     35700  -84554.618      483.37793     -84071.24       192.37673      195.13196      743.00477    
     35800  -84519.636      483.28011     -84036.356      192.35085      195.11555      743.32       
     35900  -84484.678      484.65131     -84000.027      192.32419      195.09741      743.63524    
     36000  -84446.921      485.58024     -83961.341      192.29897      195.07985      743.95047    
     36100  -84409.083      489.12523     -83919.958      192.27337      195.06103      744.2657     
     36200  -84371.422      486.73209     -83884.69       192.24841      195.04153      744.58094    
     36300  -84347.015      485.23851     -83861.776      192.2252       195.02274      744.89617    
     36400  -84309.474      479.15585     -83830.319      192.20045      195.00133      745.2114     
     36500  -84280.269      484.98312     -83795.286      192.1775       194.98077      745.52664    
     36600  -84241.804      485.83839     -83755.965      192.15515      194.95931      745.84187    
     36700  -84204.8        487.94509     -83716.855      192.13272      194.93625      746.1571     
     36800  -84171.475      489.20981     -83682.265      192.11278      194.91416      746.47233    
     36900  -84138.06       480.12318     -83657.937      192.09174      194.89022      746.78757    
     37000  -84105.495      478.80651     -83626.688      192.0711       194.86567      747.1028     
     37100  -84072.57       484.46974     -83588.101      192.0525       194.84238      747.41803    
     37200  -84029.664      482.49023     -83547.173      192.03255      194.81625      747.73327    
     37300  -84000.681      488.21684     -83512.464      192.0148       194.7918       748.0485     
     37400  -83961.66       482.53578     -83479.124      191.99626      194.7662       748.36373    
     37500  -83931.058      484.45375     -83446.604      191.978        194.74029      748.67897    
     37600  -83896.64       478.006       -83418.634      191.96111      194.71619      748.9942     
     37700  -83865.143      477.99175     -83387.152      191.94237      194.69051      749.30943    
     37800  -83829.401      484.76107     -83344.64       191.92464      194.66571      749.62467    
     37900  -83782.138      477.48858     -83304.649      191.90723      194.64157      749.9399     
     38000  -83751.683      485.3256      -83266.357      191.88847      194.61704      750.25513    
     38100  -83716.687      487.28555     -83229.401      191.87046      194.59407      750.57037    
     38200  -83679.607      484.0939      -83195.513      191.8512       194.57093      750.8856     
     38300  -83653.103      486.51867     -83166.584      191.83126      194.54838      751.20083    
     38400  -83612.667      478.49518     -83134.172      191.81221      194.52758      751.51607    
     38500  -83577.742      485.44166     -83092.301      191.79109      194.50575      751.8313     
     38600  -83535.323      483.34552     -83051.977      191.77021      194.48557      752.14653    
     38700  -83501.211      484.3732      -83016.838      191.74905      194.46643      752.46177    
     38800  -83469.306      485.84087     -82983.465      191.72543      194.44635      752.777      
     38900  -83436.679      482.53396     -82954.145      191.70359      194.42919      753.09223    
     39000  -83403.934      480.39268     -82923.541      191.67966      194.41088      753.40747    
     39100  -83361.023      479.47811     -82881.545      191.65558      194.39345      753.7227     
     39200  -83321.125      481.27896     -82839.846      191.63196      194.37751      754.03793    
     39300  -83288.006      484.29647     -82803.71       191.60628      194.36074      754.35317    
     39400  -83255.252      484.69191     -82770.56       191.58181      194.34567      754.6684     
     39500  -83222.025      480.44309     -82741.582      191.557        194.33023      754.98363    
     39600  -83186.626      478.35736     -82708.268      191.53071      194.31345      755.29887    
     39700  -83149.59       487.03552     -82662.555      191.50709      194.2997       755.6141     
     39800  -83108.609      484.38072     -82624.228      191.48205      194.28431      755.92933    
     39900  -83073.493      481.51678     -82591.976      191.45619      194.26823      756.24457    
     40000  -83043.116      481.15898     -82561.957      191.43321      194.25423      756.5598     
     40100  -83009.654      481.45307     -82528.201      191.40892      194.23772      756.87503    
     40200  -82969.775      484.952       -82484.823      191.38594      194.22152      757.19027    
     40300  -82929.057      485.88042     -82443.176      191.36457      194.20625      757.5055     
     40400  -82895.699      486.09964     -82409.599      191.34159      194.18851      757.82073    
     40500  -82858.533      478.65975     -82379.873      191.32111      194.17228      758.13597    
     40600  -82826.697      480.19467     -82346.502      191.30077      194.15434      758.4512     
     40700  -82786.355      482.17354     -82304.182      191.28053      194.13513      758.76643    
     40800  -82750.562      490.53494     -82260.027      191.26316      194.11787      759.08166    
     40900  -82711.22       483.38065     -82227.84       191.2446       194.0979       759.3969     
     41000  -82679.29       481.46579     -82197.824      191.22588      194.07696      759.71213    
     41100  -82643.539      480.22431     -82163.315      191.21035      194.05818      760.02736    
     41200  -82605.278      483.91086     -82121.367      191.19326      194.0364       760.3426     
     41300  -82570.163      491.39571     -82078.767      191.17767      194.01479      760.65783    
     41400  -82533.149      489.03689     -82044.112      191.16334      193.99347      760.97306    
     41500  -82493.507      481.50833     -82011.999      191.14771      193.97004      761.2883     
     41600  -82464.938      485.53312     -81979.405      191.13406      193.94878      761.60353    
     41700  -82426.989      482.32036     -81944.669      191.11914      193.92622      761.91876    
     41800  -82390.901      485.58088     -81905.32       191.10377      193.90255      762.234      
     41900  -82347.264      488.60104     -81858.663      191.09139      193.88156      762.54923    
     42000  -82311.77       487.36909     -81824.401      191.07604      193.85815      762.86446    
     42100  -82281.876      486.12347     -81795.752      191.06137      193.83638      763.1797     
     42200  -82241.963      479.36235     -81762.601      191.04769      193.81639      763.49493    
     42300  -82211.986      484.75912     -81727.227      191.03005      193.79308      763.81016    
     42400  -82174.366      484.8275      -81689.539      191.01659      193.7745       764.1254     
     42500  -82135.333      489.00778     -81646.325      191.00079      193.75425      764.44063    
     42600  -82098.1        490.14893     -81607.951      190.9833       193.7338       764.75586    
     42700  -82062.754      483.0512      -81579.703      190.96883      193.71805      765.0711     
     42800  -82028.363      481.40982     -81546.953      190.94946      193.69884      765.38633    
     42900  -81989.814      480.85533     -81508.958      190.93224      193.68263      765.70156    
     43000  -81952.771      485.04705     -81467.724      190.91575      193.6678       766.0168     
     43100  -81914.438      486.69301     -81427.745      190.89536      193.65071      766.33203    
     43200  -81879.698      484.85118     -81394.847      190.87756      193.63739      766.64726    
     43300  -81845.506      480.15839     -81365.347      190.85772      193.62352      766.9625     
     43400  -81808.64       479.51433     -81329.126      190.83769      193.61035      767.27773    
     43500  -81766.838      481.34156     -81285.496      190.81781      193.59791      767.59296    
     43600  -81731.946      487.71822     -81244.228      190.79681      193.58473      767.9082     
     43700  -81692.458      483.96866     -81208.489      190.77673      193.57297      768.22343    
     43800  -81661.539      486.96202     -81174.577      190.75558      193.56099      768.53866    
     43900  -81625.025      481.21532     -81143.81       190.73402      193.54915      768.8539     
     44000  -81592.903      476.76735     -81116.136      190.71319      193.5379       769.16913    
     44100  -81552.265      476.51513     -81075.75       190.69224      193.52559      769.48436    
     44200  -81510.075      478.31211     -81031.763      190.67224      193.51399      769.7996     
     44300  -81476.227      484.7625      -80991.464      190.65131      193.5013       770.11483    
     44400  -81437.778      486.74427     -80951.034      190.63103      193.48921      770.43006    
     44500  -81397.816      485.91416     -80911.902      190.61128      193.47673      770.7453     
     44600  -81364.559      485.27969     -80879.28       190.59198      193.46314      771.06053    
     44700  -81332.115      482.19615     -80849.919      190.5741       193.44963      771.37576    
     44800  -81296.594      483.4027      -80813.191      190.55612      193.43504      771.69099    
     44900  -81253.403      480.74971     -80772.654      190.53869      193.42034      772.00623    
     45000  -81218.691      485.35863     -80733.332      190.52239      193.40572      772.32146    
     45100  -81180.487      484.44193     -80696.045      190.5058       193.38941      772.63669    
     45200  -81144.781      485.13095     -80659.65       190.49196      193.3736       772.95193    
     45300  -81106.319      481.68096     -80624.638      190.47762      193.35675      773.26716    
     45400  -81074.459      483.23062     -80591.228      190.46336      193.33953      773.58239    
     45500  -81036.368      477.81276     -80558.555      190.45105      193.32298      773.89763    
     45600  -80999.877      480.12166     -80519.755      190.43765      193.30404      774.21286    
     45700  -80961.597      488.38353     -80473.213      190.42677      193.28618      774.52809    
     45800  -80922.936      489.27532     -80433.661      190.41626      193.26825      774.84333    
     45900  -80878.448      479.7052      -80398.743      190.40333      193.24735      775.15856    
     46000  -80847.26       480.04741     -80367.213      190.3937       193.22959      775.47379    
     46100  -80815.312      481.59691     -80333.715      190.38278      193.21009      775.78903    
     46200  -80775.952      484.49439     -80291.458      190.37159      193.18966      776.10426    
     46300  -80729.459      484.16208     -80245.297      190.3622       193.17181      776.41949    
     46400  -80692.792      485.20646     -80207.586      190.34972      193.1514       776.73473    
     46500  -80657.99       482.12848     -80175.861      190.33821      193.13256      777.04996    
     46600  -80625.032      481.6338      -80143.399      190.32855      193.11551      777.36519    
     46700  -80589.8        484.59305     -80105.206      190.31433      193.09451      777.68043    
     46800  -80545.084      480.66556     -80064.418      190.30332      193.07794      777.99566    
     46900  -80509.05       483.02565     -80026.024      190.29132      193.06134      778.31089    
     47000  -80476.878      487.9001      -79988.977      190.27555      193.0424       778.62613    
     47100  -80432.838      479.95948     -79952.878      190.264        193.02855      778.94136    
     47200  -80403.37       483.69406     -79919.676      190.24822      193.01192      779.25659    
     47300  -80367.668      479.09051     -79888.577      190.23208      192.99615      779.57183    
     47400  -80333.842      486.09705     -79847.745      190.21855      192.98406      779.88706    
     47500  -80287.646      485.90915     -79801.737      190.20009      192.96883      780.20229    
     47600  -80251.493      488.59215     -79762.901      190.18416      192.95714      780.51753    
     47700  -80216.035      487.03426     -79729.001      190.1675       192.9455       780.83276    
     47800  -80177.139      481.51319     -79695.626      190.14793      192.93197      781.14799    
     47900  -80142.915      483.96624     -79658.949      190.13222      192.9231       781.46323    
     48000  -80100.589      482.7608      -79617.828      190.11328      192.91224      781.77846    
     48100  -80061.399      487.65086     -79573.748      190.09338      192.90057      782.09369    
     48200  -80016.055      481.31392     -79534.741      190.07725      192.89305      782.40893    
     48300  -79987.226      483.8501      -79503.376      190.05692      192.88126      782.72416    
     48400  -79953.882      483.80973     -79470.072      190.03894      192.87197      783.03939    
     48500  -79911.811      481.05988     -79430.752      190.02148      192.86354      783.35463    
     48600  -79871.779      481.64815     -79390.131      189.99986      192.85071      783.66986    
     48700  -79833.511      485.23954     -79348.271      189.9835       192.84282      783.98509    
     48800  -79795.376      489.74554     -79305.631      189.96647      192.83278      784.30032    
     48900  -79752.181      484.60827     -79267.573      189.94567      192.81874      784.61556    
     49000  -79722.688      484.93432     -79237.754      189.93053      192.81003      784.93079    
     49100  -79687.274      482.65604     -79204.618      189.91286      192.79783      785.24602    
     49200  -79649.606      482.28714     -79167.318      189.89457      192.7837       785.56126    
     49300  -79612.028      487.51485     -79124.513      189.88129      192.77385      785.87649    
     49400  -79566.896      487.06487     -79079.831      189.86398      192.75832      786.19172    
     49500  -79532.208      491.27002     -79040.938      189.84878      192.74393      786.50696    
     49600  -79499.64       486.2573      -79013.383      189.83643      192.73222      786.82219    
     49700  -79458.192      479.95694     -78978.235      189.81931      192.71431      787.13742    
     49800  -79420.116      480.78221     -78939.334      189.80714      192.70007      787.45266    
     49900  -79381.566      483.03212     -78898.534      189.79557      192.68483      787.76789    
     50000  -79341.937      483.34246     -78858.594      189.78098      192.66527      788.08312    
     50100  -79308.046      482.86848     -78825.178      189.77182      192.65088      788.39836    
     50200  -79274.572      481.70757     -78792.865      189.75992      192.63325      788.71359    
     50300  -79239.496      485.03528     -78754.461      189.74742      192.61403      789.02882    
     50400  -79192.745      481.71263     -78711.033      189.73924      192.59826      789.34406    
     50500  -79152.405      488.98599     -78663.419      189.72789      192.57827      789.65929    
     50600  -79112.316      487.01706     -78625.299      189.71831      192.56013      789.97452    
     50700  -79085.547      493.84139     -78591.706      189.70987      192.54342      790.28976    
     50800  -79040.271      482.71688     -78557.554      189.6976       192.52311      790.60499    
     50900  -79007.738      484.77362     -78522.964      189.68884      192.50616      790.92022    
     51000  -78973.828      487.38686     -78486.441      189.67952      192.48831      791.23546    
     51100  -78933.582      484.57939     -78449.002      189.66748      192.46886      791.55069    
     51200  -78894.23       485.75792     -78408.472      189.65813      192.45279      791.86592    
     51300  -78850.582      486.09477     -78364.487      189.6459       192.435        792.18116    
     51400  -78812.618      489.28556     -78323.332      189.63344      192.41741      792.49639    
     51500  -78774.821      484.15079     -78290.67       189.62322      192.40262      792.81162    
     51600  -78742.019      484.85299     -78257.166      189.6092       192.38527      793.12686    
     51700  -78694.854      477.82925     -78217.025      189.59604      192.3701       793.44209    
     51800  -78659.702      484.90116     -78174.801      189.58207      192.35531      793.75732    
     51900  -78615.259      483.13845     -78132.121      189.56587      192.33982      794.07256    
     52000  -78582.523      490.42734     -78092.095      189.55203      192.32712      794.38779    
     52100  -78548.791      486.98232     -78061.808      189.53548      192.31292      794.70302    
     52200  -78509.877      482.49116     -78027.386      189.51865      192.29936      795.01826    
     52300  -78473.563      483.67832     -77989.885      189.5027       192.28773      795.33349    
     52400  -78432.35       482.02005     -77950.33       189.48478      192.27543      795.64872    
     52500  -78396.99       485.3065      -77911.683      189.46677      192.26342      795.96395    
     52600  -78359.998      484.25808     -77875.74       189.44931      192.25257      796.27919    
     52700  -78322.005      482.41619     -77839.589      189.43059      192.24106      796.59442    
     52800  -78284.391      481.73493     -77802.656      189.41292      192.23101      796.90965    
     52900  -78242.86       483.28866     -77759.572      189.39377      192.22003      797.22489    
     53000  -78199.607      488.27137     -77711.336      189.3753       192.21006      797.54012    
     53100  -78156.381      484.32415     -77672.057      189.35684      192.19968      797.85535    
     53200  -78123.15       484.15515     -77638.995      189.33812      192.18883      798.17059    
     53300  -78083.95       482.5863      -77601.364      189.3202       192.17888      798.48582    
     53400  -78049.289      484.76013     -77564.528      189.30151      192.16781      798.80105    
     53500  -78011.461      484.97887     -77526.482      189.28325      192.15679      799.11629    
     53600  -77974.278      481.96018     -77492.318      189.26607      192.14597      799.43152    
     53700  -77935.378      477.55785     -77457.821      189.24738      192.13277      799.74675    
     53800  -77899.735      485.50458     -77414.23       189.23126      192.12153      800.06199    
     53900  -77854.966      487.0866      -77367.879      189.21443      192.10866      800.37722    
     54000  -77811.607      484.29004     -77327.317      189.19685      192.09444      800.69245    
     54100  -77775.166      485.41447     -77289.752      189.18172      192.08118      801.00769    
     54200  -77738.648      483.09706     -77255.551      189.16665      192.06652      801.32292    
     54300  -77705.187      485.79257     -77219.394      189.15098      192.05069      801.63815    
     54400  -77667.594      487.88714     -77179.707      189.137        192.03577      801.95339    
     54500  -77624.503      483.13016     -77141.373      189.12225      192.01894      802.26862    
     54600  -77585.546      477.40755     -77108.139      189.10888      192.00193      802.58385    
     54700  -77548.967      480.02676     -77068.941      189.09634      191.98486      802.89909    
     54800  -77506.927      482.95613     -77023.971      189.08288      191.96631      803.21432    
     54900  -77466.461      490.7939      -76975.667      189.07009      191.94809      803.52955    
     55000  -77425.446      488.97796     -76936.468      189.05838      191.92995      803.84479    
     55100  -77390.422      484.7464      -76905.675      189.04613      191.91032      804.16002    
     55200  -77351.011      482.43053     -76868.58       189.03571      191.89195      804.47525    
     55300  -77319.881      486.92488     -76832.957      189.02454      191.87245      804.79049    
     55400  -77278.316      483.19996     -76795.116      189.01248      191.8524       805.10572    
     55500  -77239.388      484.81952     -76754.569      189.00236      191.83433      805.42095    
     55600  -77194.537      483.62288     -76710.914      188.99079      191.81438      805.73619    
     55700  -77156.197      488.05073     -76668.147      188.97915      191.79456      806.05142    
     55800  -77120.715      488.9894      -76631.725      188.96844      191.77674      806.36665    
     55900  -77084.496      487.5387      -76596.957      188.95514      191.75727      806.68189    
     56000  -77041.213      483.1138      -76558.099      188.94255      191.73907      806.99712    
     56100  -77004.789      487.13197     -76517.657      188.93101      191.72192      807.31235    
     56200  -76965.394      483.36805     -76482.026      188.91623      191.7023       807.62759    
     56300  -76927.292      480.05368     -76447.239      188.90281      191.68536      807.94282    
     56400  -76886.147      482.08211     -76404.064      188.88959      191.66996      808.25805    
     56500  -76844.922      488.81592     -76356.107      188.87209      191.65138      808.57328    
     56600  -76798.66       492.24782     -76306.412      188.85726      191.63611      808.88852    
     56700  -76761.216      490.21124     -76271.005      188.84146      191.6206       809.20375    
     56800  -76722.185      483.39138     -76238.794      188.82345      191.6037       809.51898    
     56900  -76686.165      482.46051     -76203.705      188.80801      191.59057      809.83422    
     57000  -76648.538      480.8903      -76167.648      188.78913      191.5751       810.14945    
     57100  -76610.009      481.18816     -76128.821      188.7695       191.56023      810.46468    
     57200  -76568.452      480.87066     -76087.582      188.75261      191.54834      810.77992    
     57300  -76529.462      481.69919     -76047.763      188.73237      191.53387      811.09515    
     57400  -76495.52       483.57113     -76011.949      188.7124       191.5202       811.41038    
     57500  -76456.139      482.29476     -75973.844      188.69368      191.50824      811.72562    
     57600  -76413.672      483.25878     -75930.413      188.67316      191.49516      812.04085    
     57700  -76373.468      491.9724      -75881.496      188.65296      191.48279      812.35608    
     57800  -76327.112      493.7061      -75833.406      188.63316      191.47066      812.67132    
     57900  -76286.698      486.69201     -75800.006      188.61257      191.45759      812.98655    
     58000  -76249.76       485.85642     -75763.903      188.59301      191.4457       813.30178    
     58100  -76216.106      488.30857     -75727.797      188.57381      191.43379      813.61702    
     58200  -76176.345      484.9948      -75691.35       188.5527       191.41983      813.93225    
     58300  -76134.928      483.93912     -75650.989      188.53359      191.40727      814.24748    
     58400  -76095.758      485.17556     -75610.583      188.51451      191.39423      814.56272    
     58500  -76054.13       479.91855     -75574.211      188.4943       191.37895      814.87795    
     58600  -76018.169      481.76782     -75536.401      188.47732      191.36643      815.19318    
     58700  -75976.856      484.47703     -75492.379      188.4583       191.35059      815.50842    
     58800  -75932.341      487.6285      -75444.713      188.43944      191.33465      815.82365    
     58900  -75879.107      488.28824     -75390.819      188.42248      191.32002      816.13888    
     59000  -75844.987      490.64839     -75354.339      188.40437      191.3027       816.45412    
     59100  -75809.362      489.64268     -75319.72       188.38794      191.28622      816.76935    
     59200  -75771.353      486.30395     -75285.049      188.37172      191.26888      817.08458    
     59300  -75735.202      487.3523      -75247.85       188.355        191.25016      817.39982    
     59400  -75692.006      482.68991     -75209.316      188.34         191.23271      817.71505    
     59500  -75654.163      484.65088     -75169.512      188.32379      191.21301      818.03028    
     59600  -75614.812      485.25142     -75129.561      188.30965      191.19491      818.34552    
     59700  -75569.706      479.7673      -75089.939      188.29421      191.17442      818.66075    
     59800  -75531.434      482.86328     -75048.571      188.27928      191.1536       818.97598    
     59900  -75495.207      481.49043     -75013.716      188.26732      191.13508      819.29122    
     60000  -75453.34       479.68375     -74973.656      188.25219      191.11296      819.60645    
     60100  -75407.858      482.58682     -74925.272      188.2388       191.09247      819.92168    
     60200  -75365.801      489.30338     -74876.497      188.22617      191.07246      820.23692    
     60300  -75329.707      494.23059     -74835.477      188.21088      191.04974      820.55215    
     60400  -75288.939      489.3688      -74799.57       188.19967      191.03088      820.86738    
     60500  -75244.537      485.98256     -74758.554      188.18571      191.0094       821.18261    
     60600  -75201.981      483.45552     -74718.525      188.17087      190.98732      821.49785    
     60700  -75158.166      480.47502     -74677.691      188.15954      190.96903      821.81308    
     60800  -75121.112      484.03369     -74637.078      188.14392      190.94692      822.12831    
     60900  -75075.525      482.94384     -74592.581      188.12906      190.92613      822.44355    
     61000  -75033.842      485.98562     -74547.857      188.11648      190.90845      822.75878    
     61100  -74992.272      485.91061     -74506.361      188.09854      190.88628      823.07401    
     61200  -74954.067      488.78201     -74465.285      188.08453      190.86848      823.38925    
     61300  -74905.736      481.79432     -74423.941      188.06853      190.84975      823.70448    
     61400  -74867.864      485.26723     -74382.597      188.05053      190.83003      824.01971    
     61500  -74830.585      491.00735     -74339.578      188.03443      190.81339      824.33495    
     61600  -74788.807      490.04341     -74298.764      188.01507      190.79452      824.65018    
     61700  -74744.788      488.18126     -74256.607      187.998        190.77839      824.96541    
     61800  -74701.564      487.49749     -74214.066      187.97892      190.76123      825.28065    
     61900  -74654.484      482.23887     -74172.245      187.95845      190.74377      825.59588    
     62000  -74611.463      481.65515     -74129.808      187.94118      190.73018      825.91111    
     62100  -74574.733      486.94579     -74087.787      187.91865      190.71247      826.22635    
     62200  -74531.135      487.23599     -74043.9        187.89946      190.69884      826.54158    
     62300  -74487.531      485.94171     -74001.589      187.87976      190.68491      826.85681    
     62400  -74441.223      481.93426     -73959.289      187.85636      190.6677       827.17205    
     62500  -74409.323      493.2777      -73916.045      187.83833      190.65591      827.48728    
     62600  -74357.756      483.61531     -73874.141      187.81598      190.63994      827.80251    
     62700  -74318.33       488.12267     -73830.208      187.79493      190.62581      828.11775    
     62800  -74271.476      485.72959     -73785.747      187.77568      190.61354      828.43298    
     62900  -74230.523      487.69141     -73742.831      187.7525       190.59739      828.74821    
     63000  -74183.424      485.47699     -73697.947      187.73325      190.58494      829.06345    
     63100  -74141.036      486.51735     -73654.519      187.71187      190.56992      829.37868    
     63200  -74095.185      484.79967     -73610.386      187.69088      190.55453      829.69391    
     63300  -74049.244      483.73109     -73565.513      187.67208      190.54146      830.00915    
     63400  -74006.58       484.62858     -73521.951      187.65016      190.52475      830.32438    
     63500  -73963.865      486.7587      -73477.106      187.63161      190.51095      830.63961    
     63600  -73917.259      484.64231     -73432.616      187.61163      190.49479      830.95485    
     63700  -73873.136      485.77747     -73387.359      187.59145      190.47759      831.27008    
     63800  -73826.249      484.83954     -73341.409      187.57446      190.4629       831.58531    
     63900  -73783.473      487.20026     -73296.273      187.55404      190.44381      831.90055    
     64000  -73742.585      491.33221     -73251.252      187.5381       190.42851      832.21578    
     64100  -73697.697      490.48671     -73207.21       187.51986      190.41         832.53101    
     64200  -73648.144      485.82412     -73162.32       187.50178      190.39086      832.84625    
     64300  -73606.481      487.91816     -73118.563      187.48703      190.37426      833.16148    
     64400  -73557.684      484.26361     -73073.42       187.46913      190.35343      833.47671    
     64500  -73513.31       486.88644     -73026.423      187.45465      190.3354       833.79194    
     64600  -73468.935      488.52078     -72980.414      187.43912      190.31565      834.10718    
     64700  -73420.43       485.7731      -72934.657      187.42341      190.29506      834.42241    
     64800  -73371.48       484.16239     -72887.318      187.41049      190.27668      834.73764    
     64900  -73325.005      484.61341     -72840.391      187.39509      190.25516      835.05288    
     65000  -73281.55       488.45399     -72793.096      187.38197      190.23561      835.36811    
     65100  -73234.957      488.4769      -72746.48       187.36804      190.21485      835.68334    
     65200  -73183.5        484.56356     -72698.937      187.35412      190.19395      835.99858    
     65300  -73140.031      487.62589     -72652.406      187.34193      190.17458      836.31381    
     65400  -73093.027      489.22744     -72603.799      187.32733      190.15295      836.62904    
     65500  -73041.563      485.96553     -72555.598      187.31491      190.13354      836.94428    
     65600  -72994.743      486.48106     -72508.262      187.30105      190.11311      837.25951    
     65700  -72951.074      490.79293     -72460.282      187.28768      190.09363      837.57474    
     65800  -72903.128      490.86257     -72412.265      187.27355      190.07393      837.88998    
     65900  -72856.375      493.48463     -72362.891      187.25907      190.05432      838.20521    
     66000  -72800.058      486.65272     -72313.405      187.2454       190.0357       838.52044    
     66100  -72752.76       488.3138      -72264.447      187.23037      190.01631      838.83568    
     66200  -72703.745      488.02832     -72215.717      187.2161       189.99837      839.15091    
     66300  -72653.039      486.55949     -72166.48       187.20079      189.98008      839.46614    
     66400  -72607.446      490.49528     -72116.951      187.18539      189.96286      839.78138    
     66500  -72555.138      487.38824     -72067.75       187.16977      189.94596      840.09661    
     66600  -72505.622      486.60676     -72019.015      187.15334      189.92942      840.41184    
     66700  -72456.956      488.10666     -71968.849      187.13746      189.91386      840.72708    
     66800  -72404          486.04447     -71917.956      187.12074      189.89818      841.04231    
     66900  -72353.468      485.47616     -71867.992      187.10395      189.88332      841.35754    
     67000  -72304.832      487.72712     -71817.105      187.0876       189.86945      841.67278    
     67100  -72253.444      486.81525     -71766.629      187.06945      189.8545       841.98801    
     67200  -72201.18       485.4026      -71715.778      187.05314      189.84199      842.30324    
     67300  -72150.601      487.24255     -71663.358      187.03485      189.82811      842.61848    
     67400  -72098.342      487.54276     -71610.8        187.01705      189.81533      842.93371    
     67500  -72045.496      486.9386      -71558.557      187.00009      189.80379      843.24894    
     67600  -71997.879      490.72325     -71507.156      186.98117      189.79041      843.56418    
     67700  -71946.848      491.51044     -71455.337      186.96475      189.7799       843.87941    
     67800  -71883.936      481.51605     -71402.42       186.94594      189.76706      844.19464    
     67900  -71833.179      485.18025     -71347.999      186.92821      189.7554       844.50988    
     68000  -71785.334      491.75406     -71293.579      186.91141      189.74454      844.82511    
     68100  -71728.023      487.29537     -71240.728      186.89285      189.73199      845.14034    
     68200  -71677.521      490.00183     -71187.519      186.87621      189.72122      845.45558    
     68300  -71624.323      490.19706     -71134.126      186.85899      189.70987      845.77081    
     68400  -71574.629      493.1954      -71081.434      186.8415       189.69785      846.08604    
     68500  -71512.743      484.94016     -71027.803      186.8261       189.68735      846.40127    
     68600  -71460.321      486.42733     -70973.894      186.80892      189.67469      846.71651    
     68700  -71408.245      488.84082     -70919.404      186.7938       189.66361      847.03174    
     68800  -71352.4        487.46171     -70864.939      186.77806      189.6511       847.34697    
     68900  -71303.082      493.34744     -70809.734      186.76315      189.63875      847.66221    
     69000  -71244.34       490.1838      -70754.156      186.74942      189.62695      847.97744    
     69100  -71189.007      489.93207     -70699.075      186.73519      189.61375      848.29267    
     69200  -71134.732      491.16283     -70643.569      186.72272      189.60167      848.60791    
     69300  -71076.501      490.76365     -70585.737      186.70925      189.58756      848.92314    
     69400  -71023.365      493.87799     -70529.487      186.69792      189.57514      849.23837    
     69500  -70962.18       489.11773     -70473.063      186.68593      189.56134      849.55361    
     69600  -70910.589      492.35311     -70418.236      186.67454      189.54743      849.86884    
     69700  -70846.301      486.51417     -70359.787      186.66434      189.53403      850.18407    
     69800  -70791.089      490.97911     -70300.11       186.65318      189.51928      850.49931    
     69900  -70736.048      493.90086     -70242.147      186.64408      189.50628      850.81454    
     70000  -70674.928      489.58049     -70185.347      186.63336      189.49097      851.12977    
     70100  -70625.254      497.9661      -70127.288      186.62474      189.47708      851.44501    
     70200  -70562.744      494.35527     -70068.389      186.61555      189.46241      851.76024    
     70300  -70501.388      492.50723     -70008.881      186.60622      189.4475       852.07547    
     70400  -70444.419      494.10601     -69950.313      186.59813      189.4339       852.39071    
     70500  -70389.209      497.24137     -69891.968      186.58851      189.41907      852.70594    
     70600  -70327.96       494.35982     -69833.6        186.58016      189.40532      853.02117    
     70700  -70267.571      494.64115     -69772.93       186.57192      189.39179      853.33641    
     70800  -70211.584      495.81726     -69715.766      186.56281      189.37739      853.65164    
     70900  -70151.925      499.05844     -69652.867      186.55448      189.36407      853.96687    
     71000  -70087.982      495.87958     -69592.103      186.54595      189.35069      854.28211    
     71100  -70029.273      498.27726     -69530.996      186.53742      189.33787      854.59734    
     71200  -69969.77       498.46856     -69471.302      186.52866      189.32533      854.91257    
     71300  -69909.31       498.38673     -69410.924      186.52008      189.31324      855.22781    
     71400  -69847.699      495.66312     -69352.036      186.5111       189.30106      855.54304    
     71500  -69782.505      494.83875     -69287.666      186.50214      189.28947      855.85827    
     71600  -69723.656      497.01044     -69226.645      186.49315      189.27824      856.17351    
     71700  -69664.307      501.29083     -69163.016      186.4842       189.26738      856.48874    
     71800  -69602.17       499.5495      -69102.62       186.4746       189.25647      856.80397    
     71900  -69541.99       503.429       -69038.561      186.46518      189.24631      857.11921    
     72000  -69478.224      503.23014     -68974.994      186.45546      189.23648      857.43444    
     72100  -69415.085      502.02224     -68913.063      186.44517      189.22671      857.74967    
     72200  -69357.204      506.35814     -68850.846      186.43551      189.21802      858.06491    
     72300  -69285.157      497.79799     -68787.359      186.42459      189.20832      858.38014    
     72400  -69228.222      506.70823     -68721.514      186.41467      189.19994      858.69537    
     72500  -69156.827      498.41575     -68658.411      186.40398      189.19113      859.0106     
     72600  -69098.891      507.01438     -68591.877      186.39338      189.18288      859.32584    
[...]
    121000  -90953.487      473.63313     -90479.854      183.70657      186.58802      1011.8987    
    121100  -90951.657      475.48423     -90476.173      183.70772      186.55902      1012.214     
    121200  -90948.65       483.76569     -90464.884      183.70861      186.52872      1012.5292    
    121300  -90939.369      483.31643     -90456.053      183.70809      186.49906      1012.8444    
    121400  -90949.956      492.9271      -90457.029      183.70891      186.47165      1013.1597    
    121500  -90952.452      488.67581     -90463.776      183.70629      186.44323      1013.4749    
    121600  -90950.752      479.87027     -90470.882      183.70632      186.42021      1013.7901    
    121700  -90948.885      478.65047     -90470.234      183.69957      186.39658      1014.1054    
    121800  -90947.347      484.12088     -90463.226      183.69386      186.37892      1014.4206    
    121900  -90948.333      491.04656     -90457.287      183.68245      186.36242      1014.7358    
    122000  -90947.377      488.30746     -90459.069      183.6679       186.34937      1015.0511    
    122100  -90950.491      484.92983     -90465.561      183.65263      186.3409       1015.3663    
    122200  -90952.674      481.42294     -90471.251      183.63188      186.3335       1015.6815    
    122300  -90950.645      481.28054     -90469.364      183.60871      186.32864      1015.9968    
    122400  -90944.029      483.04879     -90460.98       183.58404      186.32697      1016.312     
    122500  -90942.147      488.85241     -90453.295      183.55542      186.32542      1016.6272    
    122600  -90942.086      488.59345     -90453.493      183.5267       186.3263       1016.9425    
    122700  -90943.58       483.2718      -90460.308      183.49433      186.32556      1017.2577    
    122800  -90942.231      475.41477     -90466.816      183.46255      186.32779      1017.5729    
    122900  -90947.859      481.55564     -90466.303      183.42798      186.32791      1017.8882    
    123000  -90947.012      486.41852     -90460.593      183.3943       186.32902      1018.2034    
    123100  -90936.407      481.42776     -90454.979      183.36122      186.32893      1018.5186    
    123200  -90939.35       483.93472     -90455.415      183.32972      186.32758      1018.8339    
    123300  -90945.825      483.43741     -90462.388      183.30093      186.32443      1019.1491    
    123400  -90948.742      479.07878     -90469.664      183.27235      186.31618      1019.4643    
    123500  -90955.235      485.60306     -90469.631      183.24864      186.30884      1019.7796    
    123600  -90951.927      487.12558     -90464.801      183.22644      186.29682      1020.0948    
    123700  -90947.524      486.89175     -90460.632      183.20668      186.2807       1020.41      
    123800  -90954.43       490.04555     -90464.384      183.192        186.26423      1020.7253    
    123900  -90953.373      480.45053     -90472.923      183.17805      186.24116      1021.0405    
    124000  -90957.705      478.51607     -90479.189      183.16985      186.22014      1021.3557    
    124100  -90959.828      480.93354     -90478.894      183.16161      186.19364      1021.671     
    124200  -90956.102      483.11515     -90472.987      183.15822      186.16749      1021.9862    
    124300  -90948.219      482.43649     -90465.782      183.15514      186.13785      1022.3014    
    124400  -90953.094      489.69454     -90463.4        183.15445      186.10771      1022.6167    
    124500  -90948.484      480.31325     -90468.171      183.15463      186.07778      1022.9319    
    124600  -90955.729      480.37298     -90475.356      183.15342      186.04648      1023.2471    
    124700  -90959.384      481.06257     -90478.322      183.1551       186.01958      1023.5624    
    124800  -90956.66       479.85747     -90476.803      183.15189      185.98886      1023.8776    
    124900  -90957.902      485.94012     -90471.962      183.15021      185.96252      1024.1928    
    125000  -90951.966      482.87265     -90469.093      183.14624      185.93741      1024.5081    
    125100  -90948.646      479.31859     -90469.327      183.13901      185.91397      1024.8233    
    125200  -90956.042      485.82253     -90470.22       183.1313       185.8942       1025.1385    
    125300  -90952.39       482.95784     -90469.432      183.11906      185.8759       1025.4538    
    125400  -90950.887      484.82492     -90466.062      183.10732      185.863        1025.769     
    125500  -90944.082      483.92642     -90460.156      183.08947      185.84975      1026.0842    
    125600  -90943.631      488.29422     -90455.337      183.07168      185.84178      1026.3995    
    125700  -90941.865      486.33303     -90455.532      183.04992      185.83559      1026.7147    
    125800  -90934.432      475.13261     -90459.299      183.02434      185.83064      1027.0299    
    125900  -90946.172      485.9903      -90460.182      183.00012      185.8294       1027.3452    
    126000  -90937.049      479.46722     -90457.582      182.97138      185.82847      1027.6604    
    126100  -90940.655      486.71672     -90453.938      182.94091      185.82927      1027.9756    
    126200  -90938.456      484.40377     -90454.052      182.90864      185.83046      1028.2909    
    126300  -90944.216      486.52962     -90457.687      182.87493      185.83006      1028.6061    
    126400  -90943.761      481.43326     -90462.328      182.84303      185.82998      1028.9213    
    126500  -90947.616      482.9709      -90464.645      182.81026      185.82753      1029.2366    
    126600  -90949.432      484.76473     -90464.667      182.77947      185.82408      1029.5518    
    126700  -90950.288      487.1049      -90463.183      182.7486       185.8166       1029.867     
    126800  -90946.681      483.74723     -90462.934      182.72119      185.8083       1030.1823    
    126900  -90949.09       483.10643     -90465.983      182.69618      185.797        1030.4975    
    127000  -90948.697      479.76985     -90468.927      182.67356      185.7815       1030.8127    
    127100  -90959.192      490.06282     -90469.129      182.65611      185.76564      1031.128     
    127200  -90953.988      485.28258     -90468.706      182.6409       185.74485      1031.4432    
    127300  -90960.581      490.84397     -90469.737      182.62939      185.72112      1031.7584    
    127400  -90960.95       487.30351     -90473.646      182.62096      185.69498      1032.0737    
    127500  -90956.16       478.18056     -90477.98       182.6137       185.6654       1032.3889    
    127600  -90962.439      484.16382     -90478.275      182.61122      185.63744      1032.7041    
    127700  -90952.874      479.44597     -90473.428      182.60875      185.60404      1033.0194    
    127800  -90950.138      481.92518     -90468.213      182.61066      185.57298      1033.3346    
    127900  -90953.485      486.85177     -90466.633      182.60994      185.53892      1033.6498    
    128000  -90952.416      483.41181     -90469.004      182.61154      185.50616      1033.9651    
    128100  -90951.757      479.61663     -90472.141      182.61163      185.47339      1034.2803    
    128200  -90955.571      484.87075     -90470.7        182.60983      185.44049      1034.5955    
    128300  -90957.041      490.9033      -90466.138      182.60865      185.41289      1034.9108    
    128400  -90951.746      488.32324     -90463.422      182.60193      185.38322      1035.226     
    128500  -90946.522      480.11997     -90466.402      182.59571      185.35954      1035.5412    
    128600  -90947.396      476.7294      -90470.667      182.58398      185.33703      1035.8565    
    128700  -90953.955      483.9278      -90470.027      182.57068      185.31838      1036.1717    
    128800  -90944.644      480.99481     -90463.649      182.55607      185.30455      1036.4869    
    128900  -90943.625      486.62904     -90456.996      182.53503      185.29017      1036.8022    
    129000  -90941.112      485.27067     -90455.841      182.51677      185.28297      1037.1174    
    129100  -90948.57       489.1665      -90459.403      182.49186      185.27324      1037.4326    
    129200  -90950.403      486.80885     -90463.594      182.46822      185.26876      1037.7479    
    129300  -90948.644      483.77432     -90464.87       182.44078      185.26449      1038.0631    
    129400  -90940.761      478.91867     -90461.843      182.4121       185.26193      1038.3783    
    129500  -90941.669      484.43552     -90457.234      182.38334      185.26045      1038.6936    
    129600  -90944.156      487.2932      -90456.863      182.35162      185.25777      1039.0088    
    129700  -90949.458      485.79273     -90463.665      182.32214      185.25714      1039.324     
    129800  -90952.097      481.42426     -90470.673      182.28915      185.25362      1039.6393    
    129900  -90951.96       479.74689     -90472.213      182.26017      185.25128      1039.9545    
    130000  -90945.931      478.37037     -90467.56       182.23074      185.24692      1040.2697    
    130100  -90951.728      490.68461     -90461.043      182.20119      185.2395       1040.585     
    130200  -90950.164      491.16528     -90458.999      182.17718      185.23405      1040.9002    
    130300  -90951.835      486.48936     -90465.346      182.15225      185.22183      1041.2154    
    130400  -90958.021      482.99401     -90475.027      182.13215      185.21199      1041.5307    
    130500  -90961.735      480.96328     -90480.772      182.11259      185.19752      1041.8459    
    130600  -90958.213      479.21894     -90478.994      182.09582      185.18045      1042.1611    
    130700  -90961.135      489.86984     -90471.265      182.08331      185.16511      1042.4764    
    130800  -90959.173      493.34349     -90465.83       182.07066      185.14275      1042.7916    
    130900  -90957.016      487.90859     -90469.107      182.06386      185.12301      1043.1068    
    131000  -90955.644      478.48077     -90477.163      182.05645      185.09746      1043.4221    
    131100  -90959.468      478.03742     -90481.43       182.05276      185.07343      1043.7373    
    131200  -90966.404      488.58582     -90477.819      182.05064      185.04872      1044.0525    
    131300  -90958.414      488.71268     -90469.701      182.04781      185.02111      1044.3678    
    131400  -90951.436      485.85549     -90465.581      182.04883      184.99766      1044.683     
    131500  -90957.606      489.36056     -90468.245      182.04494      184.97006      1044.9982    
    131600  -90955.774      481.02351     -90474.75       182.04478      184.94701      1045.3135    
    131700  -90958.267      480.28647     -90477.98       182.04182      184.92419      1045.6287    
    131800  -90953.449      479.93315     -90473.516      182.03691      184.90254      1045.9439    
    131900  -90945.856      482.02922     -90463.826      182.03278      184.88506      1046.2592    
    132000  -90944.121      487.71853     -90456.403      182.02148      184.8655       1046.5744    
    132100  -90934.385      477.90392     -90456.481      182.0138       184.85316      1046.8896    
    132200  -90946.249      485.51248     -90460.736      181.99734      184.83875      1047.2049    
    132300  -90942.895      478.8667      -90464.029      181.98262      184.83011      1047.5201    
    132400  -90941.463      478.71529     -90462.748      181.96302      184.82251      1047.8353    
    132500  -90951.631      493.92989     -90457.702      181.93848      184.81671      1048.1506    
    132600  -90932.99       481.77055     -90451.219      181.91429      184.81517      1048.4658    
    132700  -90936.801      488.13377     -90448.667      181.88503      184.81389      1048.781     
    132800  -90947.726      493.95364     -90453.772      181.85686      184.81564      1049.0963    
    132900  -90939.284      476.68478     -90462.599      181.82575      184.81646      1049.4115    
    133000  -90948.366      480.49104     -90467.875      181.79519      184.81843      1049.7267    
    133100  -90947.785      479.67398     -90468.111      181.76635      184.82051      1050.042     
    133200  -90942.899      478.57369     -90464.325      181.73467      184.81813      1050.3572    
    133300  -90949.201      487.93903     -90461.262      181.70823      184.8185       1050.6724    
    133400  -90945.447      485.01155     -90460.435      181.6795       184.81284      1050.9877    
    133500  -90945.865      481.51133     -90464.354      181.65461      184.80837      1051.3029    
    133600  -90946.686      478.20512     -90468.481      181.63169      184.80022      1051.6181    
    133700  -90949.558      480.30572     -90469.253      181.60935      184.78802      1051.9334    
    133800  -90946.343      480.14672     -90466.196      181.59294      184.777        1052.2486    
    133900  -90950.999      488.17522     -90462.824      181.57655      184.75848      1052.5638    
    134000  -90951.83       488.76261     -90463.067      181.56452      184.74059      1052.8791    
    134100  -90954.577      486.96842     -90467.609      181.55428      184.71888      1053.1943    
    134200  -90955.46       481.06184     -90474.398      181.54665      184.6953       1053.5095    
    134300  -90957.849      479.30643     -90478.542      181.54201      184.67272      1053.8248    
    134400  -90959.252      481.75661     -90477.496      181.53535      184.64508      1054.14      
    134500  -90953.717      481.29612     -90472.421      181.53351      184.62188      1054.4552    
    134600  -90953.65       486.81585     -90466.834      181.52819      184.59322      1054.7705    
    134700  -90960.258      494.89361     -90465.365      181.52715      184.56905      1055.0857    
    134800  -90950.395      480.72987     -90469.665      181.52388      184.54261      1055.4009    
    134900  -90965.943      490.09342     -90475.849      181.52007      184.51717      1055.7162    
    135000  -90959.359      482.35458     -90477.004      181.51759      184.49499      1056.0314    
    135100  -90952.567      480.93945     -90471.628      181.51025      184.47192      1056.3466    
    135200  -90953.868      490.29638     -90463.571      181.50449      184.45294      1056.6619    
    135300  -90939.074      479.68537     -90459.389      181.49459      184.43476      1056.9771    
    135400  -90950.166      488.85824     -90461.308      181.48463      184.4193       1057.2923    
    135500  -90949.068      482.78134     -90466.287      181.4728       184.40633      1057.6076    
    135600  -90946.276      478.04777     -90468.229      181.45703      184.3944       1057.9228    
    135700  -90944.703      480.3093      -90464.394      181.4397       184.38536      1058.238     
    135800  -90947.453      491.85491     -90455.598      181.41804      184.37786      1058.5533    
    135900  -90935.842      487.19567     -90448.646      181.39622      184.37279      1058.8685    
    136000  -90933.958      483.26174     -90450.696      181.37085      184.36834      1059.1837    
    136100  -90944.301      482.69951     -90461.602      181.34544      184.36635      1059.499     
    136200  -90951.984      479.62019     -90472.364      181.31678      184.3639       1059.8142    
    136300  -90954.733      481.20903     -90473.524      181.28723      184.36234      1060.1294    
    136400  -90947.015      482.54017     -90464.475      181.25688      184.36057      1060.4447    
    136500  -90942.332      488.73241     -90453.599      181.22603      184.35814      1060.7599    
    136600  -90944.991      492.92196     -90452.069      181.19687      184.35628      1061.0751    
    136700  -90947.147      485.90837     -90461.238      181.16691      184.35122      1061.3904    
    136800  -90947.684      475.05393     -90472.63       181.13954      184.34684      1061.7056    
    136900  -90953.707      479.80574     -90473.901      181.11243      184.33983      1062.0208    
    137000  -90945.287      481.63647     -90463.65       181.08743      184.33103      1062.3361    
    137100  -90942.728      489.67129     -90453.056      181.06408      184.3211       1062.6513    
    137200  -90936.233      482.98187     -90453.251      181.04262      184.30918      1062.9665    
    137300  -90955.251      489.10311     -90466.148      181.02399      184.29585      1063.2818    
    137400  -90961.821      478.49019     -90483.331      181.00761      184.27952      1063.597     
    137500  -90971.078      478.35657     -90492.721      180.99318      184.26111      1063.9122    
    137600  -90965.865      480.69441     -90485.17       180.98132      184.24223      1064.2275    
    137700  -90954.42       487.44267     -90466.977      180.9707       184.2204       1064.5427    
    137800  -90944.159      487.49916     -90456.66       180.96253      184.19758      1064.8579    
    137900  -90953.449      489.36368     -90464.085      180.95703      184.17436      1065.1732    
    138000  -90963.973      481.99097     -90481.982      180.95089      184.14919      1065.4884    
    138100  -90971.291      478.58499     -90492.706      180.94661      184.12488      1065.8036    
    138200  -90961.085      475.51779     -90485.568      180.94106      184.09953      1066.1188    
    138300  -90950.136      483.17331     -90466.962      180.93651      184.077        1066.4341    
    138400  -90952.469      498.24476     -90454.224      180.92911      184.05373      1066.7493    
    138500  -90950.634      492.96362     -90457.67       180.92247      184.03152      1067.0645    
    138600  -90954.843      482.15471     -90472.688      180.91435      184.01083      1067.3798    
    138700  -90959.133      474.84524     -90484.288      180.9045       183.99117      1067.695     
    138800  -90959.524      478.15164     -90481.372      180.89416      183.97488      1068.0102    
    138900  -90955.25       489.58948     -90465.661      180.87958      183.95885      1068.3255    
    139000  -90943.755      492.29167     -90451.463      180.86483      183.9472       1068.6407    
    139100  -90942.893      491.15003     -90451.743      180.84562      183.93728      1068.9559    
    139200  -90948.72       483.4219      -90465.298      180.82466      183.92914      1069.2712    
    139300  -90951.962      473.59335     -90478.369      180.80268      183.92265      1069.5864    
    139400  -90958.079      481.08063     -90476.998      180.77836      183.91621      1069.9016    
    139500  -90943.824      480.61553     -90463.208      180.75523      183.91077      1070.2169    
    139600  -90937.993      488.90893     -90449.084      180.72826      183.90291      1070.5321    
    139700  -90942.447      493.98416     -90448.463      180.70289      183.89796      1070.8473    
    139800  -90943.631      481.2871      -90462.343      180.67609      183.89211      1071.1626    
    139900  -90953.467      477.65005     -90475.817      180.64754      183.88428      1071.4778    
    140000  -90956.64       479.43603     -90477.204      180.62169      183.87814      1071.793     
    140100  -90943.989      479.48126     -90464.508      180.59368      183.86828      1072.1083    
    140200  -90931.674      481.78021     -90449.894      180.57026      183.86018      1072.4235    
    140300  -90940.308      493.86409     -90446.443      180.5452       183.84628      1072.7387    
    140400  -90946.307      486.4129      -90459.894      180.52252      183.83172      1073.054     
    140500  -90958.631      483.32049     -90475.311      180.50267      183.81639      1073.3692    
