LAMMPS (2 Aug 2023 - Update 3)
OMP_NUM_THREADS environment is not set. Defaulting to 1 thread. (src/comm.cpp:98)
  using 1 OpenMP thread(s) per MPI task
Reading data file ...
  orthogonal box = (-100 -100 -2.3312515) to (100 100 46.166171)
  3 by 4 by 1 MPI processor grid
  reading atoms ...
  1320 atoms
  read_data CPU = 0.924 seconds
360 atoms in group sr
Deleted 360 atoms, new total = 960
Replication is creating a 1x1x5 = 5 times larger system...
  orthogonal box = (-100 -100 -2.3312515) to (100 100 240.15586)
  2 by 2 by 3 MPI processor grid
  4800 atoms
  replicate CPU = 0.964 seconds
System init for write_data ...
WARNING: Communication cutoff is 0.0. No ghost atoms will be generated. Atoms may get lost. (src/comm_brick.cpp:210)
Reading airebo potential file CH.airebo with DATE: 2011-10-25
Reading airebo potential file CH.airebo with DATE: 2011-10-25
Reading airebo potential file CH.airebo with DATE: 2011-10-25
Neighbor list info ...
  update: every = 1 steps, delay = 0 steps, check = yes
  max neighbors/atom: 2000, page size: 100000
  master list distance cutoff = 13.2
  ghost atom cutoff = 13.2
  binsize = 6.6, bins = 31 31 37
  6 neighbor lists, perpetual/occasional/extra = 6 0 0
  (1) pair airebo, perpetual, skip from (5)
      attributes: full, newton on, ghost
      pair build: skip/ghost
      stencil: none
      bin: none
  (2) pair airebo, perpetual, skip from (5)
      attributes: full, newton on, ghost
      pair build: skip/ghost
      stencil: none
      bin: none
  (3) pair airebo, perpetual, skip from (5)
      attributes: full, newton on, ghost
      pair build: skip/ghost
      stencil: none
      bin: none
  (4) pair lj/cut, perpetual, skip from (6)
      attributes: half, newton on, cut 13
      pair build: skip
      stencil: none
      bin: none
  (5) neighbor class addition, perpetual
      attributes: full, newton on, ghost
      pair build: full/bin/ghost
      stencil: full/ghost/bin/3d
      bin: standard
  (6) neighbor class addition, perpetual
      attributes: half, newton on, cut 13
      pair build: half/bin/atomonly/newton
      stencil: half/bin/3d
      bin: standard
Setting up sd style minimization ...
  Unit style    : metal
  Current step  : 0
Per MPI rank memory allocation (min/avg/max) = 10.78 | 10.78 | 10.78 Mbytes
   Step          Temp          E_pair         E_mol          TotEng         Press     
         0   0             -35556.881      0             -35556.881     -25.745857    
         1   0             -35556.969      0             -35556.969     -25.739335    
Loop time of 1.27898 on 12 procs for 1 steps with 4800 atoms

36.4% CPU use with 12 MPI tasks x 1 OpenMP threads

Minimization stats:
  Stopping criterion = energy tolerance
  Energy initial, next-to-last, final = 
     -35556.8806401554  -35556.8806401554  -35556.9687581107
  Force two-norm initial, final = 4.8432215 0.48794497
  Force max component initial, final = 0.069876905 0.0070494245
  Final line search alpha, max atom move = 1 0.0070494245
  Iterations, force evaluations = 1 2

MPI task timing breakdown:
Section |  min time  |  avg time  |  max time  |%varavg| %total
---------------------------------------------------------------
Pair    | 0.014229   | 0.024123   | 0.039532   |   7.1 |  1.89
Neigh   | 0          | 0          | 0          |   0.0 |  0.00
Comm    | 0.3013     | 0.36524    | 0.40128    |   4.9 | 28.56
Output  | 0          | 0          | 0          |   0.0 |  0.00
Modify  | 0          | 0          | 0          |   0.0 |  0.00
Other   |            | 0.8896     |            |       | 69.56

Nlocal:            400 ave         436 max         363 min
Histogram: 3 0 0 0 2 4 0 0 0 3
Nghost:           1720 ave        1767 max        1676 min
Histogram: 2 0 1 2 2 0 2 1 1 1
Neighs:              0 ave           0 max           0 min
Histogram: 12 0 0 0 0 0 0 0 0 0

Total # of neighbors = 0
Ave neighs/atom = 0
Neighbor list builds = 0
Dangerous builds = 0
Setting up Verlet run ...
  Unit style    : metal
  Current step  : 1
  Time step     : 0.001
Per MPI rank memory allocation (min/avg/max) = 11.41 | 11.41 | 11.41 Mbytes
   Step          Temp          E_pair         E_mol          TotEng         Press          Volume    
         1   300           -35556.969      0             -35370.873     -5.2462623      9699484.6    
Loop time of 0.0593292 on 12 procs for 0 steps with 4800 atoms

36.5% CPU use with 12 MPI tasks x 1 OpenMP threads

MPI task timing breakdown:
Section |  min time  |  avg time  |  max time  |%varavg| %total
---------------------------------------------------------------
Pair    | 0          | 0          | 0          |   0.0 |  0.00
Neigh   | 0          | 0          | 0          |   0.0 |  0.00
Comm    | 0          | 0          | 0          |   0.0 |  0.00
Output  | 0          | 0          | 0          |   0.0 |  0.00
Modify  | 0          | 0          | 0          |   0.0 |  0.00
Other   |            | 0.05933    |            |       |100.00

Nlocal:            400 ave         402 max         396 min
Histogram: 4 0 0 0 0 0 0 0 0 8
Nghost:           1720 ave        1734 max        1710 min
Histogram: 4 0 4 0 0 0 0 0 0 4
Neighs:              0 ave           0 max           0 min
Histogram: 12 0 0 0 0 0 0 0 0 0

Total # of neighbors = 0
Ave neighs/atom = 0
Neighbor list builds = 0
Dangerous builds = 0
WARNING: Dump 2 includes no atom IDs and is not sorted by ID. This may complicate post-processing tasks or visualization (src/dump.cpp:221)
Setting up Verlet run ...
  Unit style    : metal
  Current step  : 0
  Time step     : 0.001
Per MPI rank memory allocation (min/avg/max) = 12.91 | 12.91 | 12.91 Mbytes
   Step         PotEng         KinEng         TotEng           Lx             Ly             Lz      
         0  -35556.969      186.09583     -35370.873      200            200            242.48711    
       100  -35447.722      92.157988     -35355.564      199.99812      199.99822      242.60836    
       200  -35451.892      118.13301     -35333.759      199.99634      199.99608      242.7296     
       300  -35429.148      121.49301     -35307.655      199.99844      199.99748      242.85085    
       400  -35420.683      141.57147     -35279.112      199.9947       199.99244      242.97209    
       500  -35398.591      149.11803     -35249.473      199.99802      199.99449      243.09333    
       600  -35390.679      170.12548     -35220.554      199.99468      199.99         243.21458    
       700  -35375.938      180.71952     -35195.219      199.99732      199.99151      243.33582    
       800  -35367.544      191.01031     -35176.533      199.9929       199.985        243.45706    
       900  -35362.011      193.13628     -35168.875      199.9938       199.98341      243.57831    
      1000  -35365.676      190.65827     -35175.018      199.99467      199.98081      243.69955    
      1100  -35371.646      184.868       -35186.778      199.99249      199.97496      243.82079    
      1200  -35371.148      179.02665     -35192.121      199.995        199.97314      243.94204    
      1300  -35372.274      183.77367     -35188.5        199.99466      199.96819      244.06328    
      1400  -35363.628      184.34056     -35179.288      199.99442      199.96302      244.18452    
      1500  -35361.122      189.94989     -35171.172      199.99395      199.95796      244.30577    
      1600  -35361.842      191.82724     -35170.015      199.9935       199.95219      244.42701    
      1700  -35362.55       186.31881     -35176.231      199.99529      199.94856      244.54826    
      1800  -35366.813      184.39819     -35182.415      199.99211      199.93995      244.6695     
      1900  -35364.751      181.78172     -35182.97       199.99461      199.93715      244.79074    
      2000  -35361.51       184.92032     -35176.59       199.99202      199.92902      244.91199    
      2100  -35355.132      186.87728     -35168.255      199.98984      199.92225      245.03323    
      2200  -35354.536      191.43199     -35163.104      199.98889      199.91677      245.15447    
      2300  -35351.174      186.72218     -35164.452      199.98561      199.90955      245.27572    
      2400  -35355.06       185.19352     -35169.867      199.98495      199.90502      245.39696    
      2500  -35356.268      183.52106     -35172.747      199.97928      199.89634      245.5182     
      2600  -35352.66       183.40292     -35169.257      199.97876      199.89222      245.63945    
      2700  -35347.216      185.67917     -35161.537      199.97397      199.88432      245.76069    
      2800  -35341.654      186.78997     -35154.864      199.96855      199.87634      245.88193    
      2900  -35341.335      188.81884     -35152.516      199.96715      199.87281      246.00318    
      3000  -35344.107      187.99497     -35156.112      199.96047      199.86449      246.12442    
      3100  -35342.63       182.29051     -35160.339      199.95708      199.85956      246.24567    
      3200  -35344.118      184.13657     -35159.981      199.95109      199.85285      246.36691    
      3300  -35338.56       184.15604     -35154.404      199.94498      199.84613      246.48815    
      3400  -35332.487      186.01866     -35146.468      199.94008      199.84063      246.6094     
      3500  -35336.34       195.01411     -35141.326      199.93098      199.83125      246.73064    
      3600  -35329.628      187.67992     -35141.948      199.92825      199.82782      246.85188    
      3700  -35328.395      182.73621     -35145.659      199.91997      199.81844      246.97313    
      3800  -35329.02       180.98267     -35148.038      199.91466      199.81137      247.09437    
      3900  -35327.178      183.17538     -35144.002      199.90876      199.80346      247.21561    
      4000  -35321.098      185.54142     -35135.556      199.90126      199.79367      247.33686    
      4100  -35313.588      185.63974     -35127.948      199.89593      199.78579      247.4581     
      4200  -35311.995      186.8908      -35125.104      199.88777      199.77492      247.57934    
      4300  -35314.171      186.55402     -35127.617      199.88339      199.76719      247.70059    
      4400  -35313.075      182.08811     -35130.987      199.87669      199.75646      247.82183    
      4500  -35312.545      182.97881     -35129.566      199.86832      199.74401      247.94308    
      4600  -35307.538      185.21873     -35122.319      199.86554      199.73607      248.06432    
      4700  -35302.038      188.60889     -35113.429      199.85592      199.72129      248.18556    
      4800  -35295.714      187.34409     -35108.369      199.8517       199.7115       248.30681    
      4900  -35297.516      188.67007     -35108.846      199.84549      199.69868      248.42805    
      5000  -35297.028      184.87085     -35112.157      199.8389       199.68559      248.54929    
      5100  -35296.286      183.52613     -35112.76       199.83393      199.67383      248.67054    
      5200  -35291.574      183.60217     -35107.972      199.82416      199.65768      248.79178    
      5300  -35288.109      189.01044     -35099.099      199.81968      199.6464       248.91302    
      5400  -35281.31       189.205       -35092.105      199.8106       199.63115      249.03427    
      5500  -35275.868      185.94289     -35089.925      199.80207      199.61641      249.15551    
      5600  -35281.198      189.64684     -35091.551      199.79613      199.60472      249.27675    
      5700  -35275.897      183.03233     -35092.865      199.78388      199.58691      249.398      
      5800  -35273.898      184.05604     -35089.842      199.7764       199.5742       249.51924    
      5900  -35268.298      186.47929     -35081.818      199.76469      199.55754      249.64048    
      6000  -35258.463      184.87959     -35073.584      199.75538      199.5435       249.76173    
      6100  -35259.117      190.10106     -35069.016      199.74355      199.52806      249.88297    
      6200  -35256.421      187.25222     -35069.168      199.73186      199.51331      250.00422    
      6300  -35254.549      184.42515     -35070.124      199.72083      199.49951      250.12546    
      6400  -35251.246      182.60803     -35068.638      199.70648      199.48335      250.2467     
      6500  -35248.239      185.94762     -35062.292      199.69318      199.4679       250.36795    
      6600  -35242.446      188.18039     -35054.265      199.68081      199.45417      250.48919    
      6700  -35237.746      189.41241     -35048.334      199.66485      199.43728      250.61043    
      6800  -35236.222      189.50888     -35046.713      199.6518       199.42288      250.73168    
      6900  -35236.93       190.06916     -35046.861      199.63604      199.40649      250.85292    
      7000  -35229.771      183.62625     -35046.145      199.62144      199.39078      250.97416    
      7100  -35225.467      184.4859      -35040.981      199.6056       199.37331      251.09541    
      7200  -35222.123      189.02806     -35033.095      199.58998      199.356        251.21665    
      7300  -35214.145      188.01347     -35026.132      199.57449      199.33813      251.33789    
      7400  -35210.991      188.71866     -35022.272      199.55826      199.3188       251.45914    
      7500  -35208.194      186.59631     -35021.597      199.54204      199.29957      251.58038    
      7600  -35205.951      185.57737     -35020.374      199.52691      199.28018      251.70163    
      7700  -35201.033      185.19275     -35015.841      199.50904      199.25732      251.82287    
      7800  -35190.673      185.56908     -35005.104      199.49352      199.237        251.94411    
      7900  -35190.91       192.20487     -34998.705      199.47596      199.21309      252.06536    
      8000  -35183.904      186.58157     -34997.322      199.45967      199.19038      252.1866     
      8100  -35181.145      185.13786     -34996.007      199.44245      199.16632      252.30784    
      8200  -35177.927      185.3616      -34992.565      199.42544      199.14146      252.42909    
      8300  -35173.207      187.61611     -34985.591      199.40825      199.11621      252.55033    
      8400  -35165.877      191.67255     -34974.204      199.39064      199.09008      252.67157    
      8500  -35160.449      190.05092     -34970.398      199.37177      199.06149      252.79282    
      8600  -35155.526      185.67731     -34969.849      199.35522      199.03508      252.91406    
      8700  -35156.191      188.59606     -34967.595      199.33505      199.00496      253.0353     
      8800  -35149.637      184.99925     -34964.638      199.31793      198.97677      253.15655    
      8900  -35146.897      187.04982     -34959.847      199.29724      198.94605      253.27779    
      9000  -35137.38       184.11718     -34953.263      199.27706      198.9163       253.39904    
      9100  -35134.081      188.93273     -34945.148      199.25604      198.88559      253.52028    
      9200  -35128.357      188.31924     -34940.037      199.23315      198.85323      253.64152    
      9300  -35123.334      184.18379     -34939.15       199.21209      198.82253      253.76277    
      9400  -35118.852      181.71591     -34937.136      199.18843      198.78942      253.88401    
      9500  -35117.918      186.87519     -34931.043      199.16477      198.75665      254.00525    
      9600  -35108.462      184.49803     -34923.964      199.14082      198.72439      254.1265     
      9700  -35105.514      187.82181     -34917.693      199.11381      198.68962      254.24774    
      9800  -35097.368      184.94099     -34912.427      199.08781      198.65764      254.36898    
      9900  -35094.725      187.84602     -34906.879      199.05911      198.62378      254.49023    
     10000  -35087.275      185.54134     -34901.734      199.03028      198.5905       254.61147    
     10100  -35081.435      182.88027     -34898.554      199.00127      198.55746      254.73271    
     10200  -35078.739      183.80556     -34894.933      198.96965      198.52207      254.85396    
     10300  -35073.23       184.72617     -34888.504      198.93914      198.48817      254.9752     
     10400  -35064.03       185.65268     -34878.378      198.90601      198.45202      255.09644    
     10500  -35058.336      187.33559     -34871          198.87358      198.41678      255.21769    
     10600  -35053.624      186.54183     -34867.082      198.83992      198.38001      255.33893    
     10700  -35050.186      185.87996     -34864.306      198.80462      198.34178      255.46018    
     10800  -35045.038      185.69591     -34859.343      198.7706       198.30491      255.58142    
     10900  -35036.944      183.77839     -34853.166      198.73314      198.26428      255.70266    
     11000  -35033.531      187.87256     -34845.659      198.69683      198.22456      255.82391    
     11100  -35024.486      187.18725     -34837.298      198.66039      198.18397      255.94515    
     11200  -35019.509      189.01409     -34830.495      198.62249      198.14047      256.06639    
     11300  -35017.893      188.55393     -34829.339      198.5861       198.09725      256.18764    
     11400  -35012.055      185.63467     -34826.42       198.54772      198.05114      256.30888    
     11500  -35003.105      183.96479     -34819.14       198.51057      198.00496      256.43012    
     11600  -34994.97       186.25968     -34808.711      198.4723       197.95685      256.55137    
     11700  -34986.32       185.20535     -34801.115      198.43453      197.90781      256.67261    
     11800  -34981.274      184.89303     -34796.381      198.3973       197.85865      256.79385    
     11900  -34981.657      189.07501     -34792.582      198.35834      197.80588      256.9151     
     12000  -34975.015      186.45284     -34788.562      198.32087      197.75438      257.03634    
     12100  -34968.155      184.88311     -34783.272      198.28244      197.70027      257.15759    
     12200  -34959.405      185.83538     -34773.569      198.24346      197.64569      257.27883    
     12300  -34950.97       187.7355      -34763.234      198.20548      197.59159      257.40007    
     12400  -34943.984      186.83789     -34757.146      198.16457      197.53449      257.52132    
     12500  -34940.204      185.09102     -34755.113      198.12554      197.47884      257.64256    
     12600  -34938.297      187.36248     -34750.935      198.08344      197.42029      257.7638     
     12700  -34927.121      183.70852     -34743.413      198.04183      197.36255      257.88505    
     12800  -34921.67       187.08891     -34734.581      197.99983      197.30525      258.00629    
     12900  -34912.43       185.27151     -34727.159      197.95508      197.24639      258.12753    
     13000  -34906.792      186.22267     -34720.569      197.91083      197.18864      258.24878    
     13100  -34899.442      184.98602     -34714.456      197.86483      197.12995      258.37002    
     13200  -34895.92       187.38009     -34708.54       197.81718      197.07058      258.49126    
     13300  -34888.357      185.14622     -34703.211      197.76986      197.01312      258.61251    
     13400  -34881.621      186.92631     -34694.695      197.71994      196.95361      258.73375    
     13500  -34870.466      186.40075     -34684.066      197.67148      196.89667      258.855      
     13600  -34861.183      185.62604     -34675.557      197.61985      196.83742      258.97624    
     13700  -34858.509      186.53654     -34671.972      197.56874      196.7793       259.09748    
     13800  -34854.186      184.12602     -34670.06       197.51761      196.72136      259.21873    
     13900  -34844.843      182.87169     -34661.971      197.46394      196.66131      259.33997    
     14000  -34838.539      186.80964     -34651.729      197.41269      196.60388      259.46121    
     14100  -34832.547      189.80227     -34642.745      197.35957      196.54469      259.58246    
     14200  -34827.137      190.76791     -34636.37       197.30552      196.48541      259.7037     
     14300  -34819.308      183.27028     -34636.038      197.25342      196.42717      259.82494    
     14400  -34813.131      183.43475     -34629.696      197.1985       196.36582      259.94619    
     14500  -34800.585      182.08504     -34618.5        197.14708      196.30742      260.06743    
     14600  -34794.828      186.98274     -34607.845      197.09284      196.24535      260.18867    
     14700  -34783.377      184.02317     -34599.354      197.0411       196.18471      260.30992    
     14800  -34779.84       186.97117     -34592.868      196.98985      196.12448      260.43116    
     14900  -34774.14       183.49059     -34590.649      196.93628      196.06087      260.55241    
     15000  -34769.167      184.39863     -34584.768      196.88628      196.00094      260.67365    
     15100  -34758.26       184.96369     -34573.297      196.83429      195.9379       260.79489    
     15200  -34749.156      185.85369     -34563.302      196.78443      195.87597      260.91614    
     15300  -34740.743      186.00224     -34554.741      196.73527      195.81382      261.03738    
     15400  -34730.884      184.51316     -34546.37       196.68444      195.74916      261.15862    
     15500  -34724.214      185.92404     -34538.29       196.63854      195.68856      261.27987    
     15600  -34717.773      186.36617     -34531.407      196.58827      195.62315      261.40111    
     15700  -34711.102      185.19861     -34525.903      196.54134      195.56093      261.52235    
     15800  -34703.679      183.50755     -34520.171      196.49528      195.49965      261.6436     
     15900  -34696.816      185.05083     -34511.765      196.44518      195.43428      261.76484    
     16000  -34686.741      188.16002     -34498.581      196.40108      195.37467      261.88608    
     16100  -34678.553      189.59913     -34488.954      196.35322      195.31168      262.00733    
     16200  -34670.594      186.71215     -34483.882      196.30738      195.25069      262.12857    
     16300  -34665.709      186.78637     -34478.923      196.26224      195.19072      262.24981    
     16400  -34656.203      185.20789     -34470.995      196.21413      195.12829      262.37106    
     16500  -34648.982      186.96412     -34462.018      196.17105      195.07158      262.4923     
     16600  -34638.493      187.22676     -34451.266      196.12304      195.01083      262.61355    
     16700  -34625.077      187.20375     -34437.873      196.07798      194.95466      262.73479    
     16800  -34618.568      191.17919     -34427.388      196.03303      194.89947      262.85603    
     16900  -34614.957      189.07579     -34425.881      195.98625      194.84323      262.97728    
     17000  -34609.997      190.10515     -34419.892      195.94136      194.78937      263.09852    
     17100  -34600.129      187.19677     -34412.932      195.89577      194.73558      263.21976    
     17200  -34589.639      185.05922     -34404.58       195.85042      194.68253      263.34101    
     17300  -34581.603      188.02094     -34393.582      195.80703      194.63268      263.46225    
     17400  -34568.706      187.15186     -34381.554      195.76098      194.58076      263.58349    
     17500  -34562.329      189.58059     -34372.748      195.71809      194.53336      263.70474    
     17600  -34554.574      183.63976     -34370.935      195.67287      194.48468      263.82598    
     17700  -34548.207      184.22529     -34363.982      195.62717      194.4357       263.94722    
     17800  -34537.881      184.91251     -34352.968      195.58527      194.39089      264.06847    
     17900  -34526.134      185.05383     -34341.08       195.53982      194.34258      264.18971    
     18000  -34518.821      186.87443     -34331.946      195.49895      194.29842      264.31096    
     18100  -34512.755      186.30602     -34326.449      195.45584      194.25231      264.4322     
     18200  -34507.548      184.35685     -34323.191      195.41438      194.20734      264.55344    
     18300  -34496.626      183.9025      -34312.724      195.37405      194.16339      264.67469    
     18400  -34482.723      183.18476     -34299.539      195.33186      194.11774      264.79593    
     18500  -34472.961      184.21044     -34288.751      195.2931       194.07539      264.91717    
     18600  -34465.284      185.28414     -34280          195.25416      194.03184      265.03842    
     18700  -34459.588      185.6734      -34273.915      195.21581      193.98806      265.15966    
     18800  -34451.405      180.94768     -34270.458      195.17993      193.94563      265.2809     
     18900  -34445.973      185.48087     -34260.492      195.14316      193.90185      265.40215    
     19000  -34434.46       186.14566     -34248.314      195.10871      193.85973      265.52339    
     19100  -34419.223      182.54475     -34236.678      195.07444      193.81751      265.64463    
     19200  -34413.434      188.1271      -34225.307      195.03999      193.77548      265.76588    
     19300  -34403.667      187.89273     -34215.775      195.00869      193.73602      265.88712    
     19400  -34397.036      186.29767     -34210.739      194.97486      193.69337      266.00837    
     19500  -34393.255      187.42417     -34205.831      194.94431      193.65354      266.12961    
     19600  -34378.93       184.50234     -34194.427      194.91334      193.61247      266.25085    
     19700  -34366.691      185.28555     -34181.406      194.88294      193.57137      266.3721     
     19800  -34359.537      188.54613     -34170.991      194.85463      193.5331       266.49334    
     19900  -34348.324      186.8502      -34161.474      194.82262      193.49147      266.61458    
     20000  -34340.783      186.746       -34154.037      194.79583      193.45506      266.73583    
     20100  -34333.779      183.94438     -34149.835      194.76451      193.4147       266.85707    
     20200  -34325.253      184.43007     -34140.823      194.73576      193.37774      266.97831    
     20300  -34310.92       184.79465     -34126.126      194.70758      193.34115      267.09956    
     20400  -34303.873      188.93302     -34114.94       194.67692      193.3026       267.2208     
     20500  -34290.972      185.8614      -34105.111      194.64976      193.26811      267.34204    
     20600  -34282.722      187.97551     -34094.747      194.61837      193.23042      267.46329    
     20700  -34271.875      188.43994     -34083.435      194.59152      193.19775      267.58453    
     20800  -34263.477      190.68129     -34072.795      194.56236      193.16391      267.70577    
     20900  -34251.98       185.96684     -34066.013      194.53154      193.12942      267.82702    
     21000  -34244.357      183.83736     -34060.519      194.50396      193.09907      267.94826    
     21100  -34236.747      185.51916     -34051.228      194.47323      193.06631      268.06951    
     21200  -34224.017      186.24389     -34037.773      194.44445      193.03576      268.19075    
     21300  -34216.565      192.63476     -34023.93       194.41667      193.00595      268.31199    
     21400  -34202.937      187.57305     -34015.364      194.38745      192.97509      268.43324    
     21500  -34197.043      188.60947     -34008.434      194.35919      192.94545      268.55448    
     21600  -34186.576      185.49451     -34001.081      194.33106      192.91637      268.67572    
     21700  -34176.085      185.09218     -33990.993      194.30133      192.88636      268.79697    
     21800  -34163.565      188.4198      -33975.145      194.27397      192.85859      268.91821    
     21900  -34155.072      191.70637     -33963.365      194.24503      192.8288       269.03945    
     22000  -34143.885      187.22485     -33956.66       194.21855      192.80067      269.1607     
     22100  -34133.281      183.33539     -33949.946      194.19078      192.77098      269.28194    
     22200  -34129.534      189.21934     -33940.315      194.16356      192.74153      269.40318    
     22300  -34114.866      185.84764     -33929.019      194.1373       192.71299      269.52443    
     22400  -34102.821      185.54224     -33917.279      194.10967      192.68217      269.64567    
     22500  -34091.803      185.41769     -33906.386      194.08508      192.65428      269.76692    
     22600  -34081.862      185.93206     -33895.93       194.05901      192.62421      269.88816    
     22700  -34074.712      188.16564     -33886.547      194.03398      192.59464      270.0094     
     22800  -34063.53       184.05991     -33879.47       194.00957      192.56521      270.13065    
     22900  -34050.866      177.08551     -33873.781      193.98504      192.53512      270.25189    
     23000  -34044.44       183.45668     -33860.983      193.96088      192.50493      270.37313    
     23100  -34029.956      183.48323     -33846.473      193.93797      192.47563      270.49438    
     23200  -34021.845      187.10127     -33834.744      193.91528      192.44598      270.61562    
     23300  -34010.076      186.26233     -33823.813      193.89228      192.41639      270.73686    
     23400  -34001.807      188.08461     -33813.723      193.86841      192.38591      270.85811    
     23500  -33986.626      181.41546     -33805.211      193.84629      192.35703      270.97935    
     23600  -33980.68       183.16604     -33797.514      193.82403      192.32773      271.10059    
     23700  -33972.325      185.47505     -33786.85       193.80038      192.29696      271.22184    
     23800  -33957.822      186.79544     -33771.026      193.77923      192.26871      271.34308    
     23900  -33944.892      186.20567     -33758.686      193.7564       192.23932      271.46433    
     24000  -33932.846      183.00029     -33749.846      193.73312      192.20995      271.58557    
     24100  -33928.406      186.74537     -33741.661      193.7096       192.18108      271.70681    
     24200  -33918.509      185.01788     -33733.491      193.68586      192.15277      271.82806    
     24300  -33906.087      181.15306     -33724.934      193.66226      192.12477      271.9493     
     24400  -33893.11       182.92077     -33710.189      193.63776      192.09638      272.07054    
     24500  -33881.149      185.74978     -33695.399      193.61447      192.06924      272.19179    
     24600  -33870.382      186.53543     -33683.846      193.5897       192.04174      272.31303    
     24700  -33859.035      184.5936      -33674.441      193.56398      192.01409      272.43427    
     24800  -33855.549      187.6625      -33667.886      193.53944      191.9882       272.55552    
     24900  -33842.338      182.52847     -33659.81       193.51393      191.9621       272.67676    
     25000  -33828.108      184.14604     -33643.962      193.48732      191.93552      272.798      
     25100  -33813.99       184.32201     -33629.668      193.46333      191.91099      272.91925    
     25200  -33807.082      188.02732     -33619.054      193.43702      191.88471      273.04049    
     25300  -33794.901      184.20451     -33610.696      193.41077      191.85877      273.16174    
     25400  -33784.932      182.78801     -33602.144      193.3858       191.8335       273.28298    
     25500  -33777.305      185.71493     -33591.59       193.35989      191.80774      273.40422    
     25600  -33760.2        184.57482     -33575.625      193.33425      191.78221      273.52547    
     25700  -33751.092      189.33079     -33561.761      193.30842      191.7571       273.64671    
     25800  -33741.273      189.11211     -33552.161      193.28232      191.73091      273.76795    
     25900  -33730.964      185.73141     -33545.233      193.25751      191.70563      273.8892     
     26000  -33719.432      183.89218     -33535.54       193.23131      191.67858      274.01044    
     26100  -33705.516      183.33193     -33522.184      193.20667      191.65258      274.13168    
     26200  -33692.72       183.03427     -33509.686      193.1816       191.62551      274.25293    
     26300  -33686.381      189.32033     -33497.061      193.15522      191.59757      274.37417    
     26400  -33673.06       188.79293     -33484.267      193.13165      191.57203      274.49541    
     26500  -33660.014      188.1358      -33471.879      193.10562      191.54342      274.61666    
     26600  -33649.939      187.9456      -33461.993      193.08179      191.5164       274.7379     
     26700  -33638.029      182.6327      -33455.397      193.05774      191.4879       274.85914    
     26800  -33630.146      184.56177     -33445.584      193.03348      191.45838      274.98039    
     26900  -33615.277      184.97074     -33430.307      193.01018      191.43031      275.10163    
     27000  -33605.649      189.45333     -33416.196      192.98601      191.40089      275.22288    
     27100  -33592.088      186.61269     -33405.476      192.96305      191.37286      275.34412    
     27200  -33580.776      185.31338     -33395.463      192.93915      191.34328      275.46536    
     27300  -33569.884      182.97843     -33386.906      192.9165       191.31448      275.58661    
     27400  -33560.634      182.06912     -33378.564      192.89297      191.28416      275.70785    
     27500  -33547.074      181.67959     -33365.394      192.8696       191.25358      275.82909    
     27600  -33535.455      187.4473      -33348.008      192.84718      191.22461      275.95034    
     27700  -33522.56       187.45821     -33335.101      192.82376      191.19467      276.07158    
     27800  -33509.431      184.93338     -33324.497      192.80067      191.16558      276.19282    
     27900  -33500.437      184.94989     -33315.487      192.77631      191.13516      276.31407    
     28000  -33494.279      186.9295      -33307.349      192.7533       191.10643      276.43531    
     28100  -33480.44       185.24258     -33295.198      192.72862      191.07584      276.55655    
     28200  -33465.623      188.32347     -33277.3        192.70341      191.04577      276.6778     
     28300  -33451.706      187.86767     -33263.838      192.67946      191.01793      276.79904    
     28400  -33439.592      187.13547     -33252.457      192.65338      190.98897      276.92029    
     28500  -33427.046      183.14459     -33243.902      192.62787      190.96157      277.04153    
     28600  -33416.784      180.90039     -33235.884      192.59997      190.93246      277.16277    
     28700  -33407.696      184.75643     -33222.939      192.57449      190.90546      277.28402    
     28800  -33393.685      189.25665     -33204.428      192.54739      190.87729      277.40526    
     28900  -33381.346      189.36729     -33191.979      192.51911      190.84878      277.5265     
     29000  -33370.762      188.53691     -33182.225      192.49321      190.82321      277.64775    
     29100  -33358.609      184.61319     -33173.996      192.46396      190.79509      277.76899    
     29200  -33347.289      183.46713     -33163.822      192.43606      190.76903      277.89023    
     29300  -33333.375      184.88365     -33148.491      192.4078       190.74235      278.01148    
     29400  -33321.153      189.29501     -33131.858      192.37935      190.71475      278.13272    
     29500  -33306.675      185.63052     -33121.044      192.35179      190.68808      278.25396    
     29600  -33299.992      187.51678     -33112.475      192.32246      190.66001      278.37521    
     29700  -33287.917      184.70913     -33103.208      192.29473      190.6335       278.49645    
     29800  -33274.895      186.34374     -33088.551      192.26565      190.60536      278.6177     
     29900  -33259.881      189.57297     -33070.308      192.23893      190.57913      278.73894    
     30000  -33246.568      187.5419      -33059.026      192.20962      190.54962      278.86018    
     30100  -33236.943      186.52142     -33050.421      192.18188      190.52157      278.98143    
     30200  -33225.202      184.15979     -33041.043      192.15503      190.49383      279.10267    
     30300  -33212.175      184.4154      -33027.76       192.12521      190.46251      279.22391    
     30400  -33195.483      186.28541     -33009.198      192.09959      190.43508      279.34516    
     30500  -33184.814      188.32285     -32996.491      192.07096      190.40398      279.4664     
     30600  -33172.539      185.2111      -32987.328      192.04475      190.37472      279.58764    
     30700  -33162.761      185.0953      -32977.665      192.01817      190.344        279.70889    
     30800  -33149.013      183.68525     -32965.328      191.99022      190.31148      279.83013    
     30900  -33135.419      187.56059     -32947.858      191.96606      190.28225      279.95137    
     31000  -33123.006      190.15197     -32932.854      191.93761      190.24833      280.07262    
     31100  -33112.454      188.41049     -32924.043      191.91311      190.21788      280.19386    
     31200  -33102.247      186.9115      -32915.336      191.88746      190.18565      280.3151     
     31300  -33090.065      186.17538     -32903.889      191.8613       190.15234      280.43635    
     31400  -33076.831      185.48852     -32891.342      191.83798      190.12143      280.55759    
     31500  -33063.748      187.8452      -32875.903      191.81054      190.0863       280.67884    
     31600  -33049.38       190.96609     -32858.414      191.78599      190.0544       280.80008    
     31700  -33035.515      188.13244     -32847.383      191.76098      190.02175      280.92132    
     31800  -33022.807      183.88319     -32838.924      191.73407      189.98782      281.04257    
     31900  -33012.998      185.27177     -32827.726      191.70961      189.95661      281.16381    
     32000  -33002.912      187.8848      -32815.027      191.68237      189.92312      281.28505    
     32100  -32989.163      188.57304     -32800.59       191.65529      189.89011      281.4063     
     32200  -32971.743      188.96941     -32782.774      191.62964      189.85947      281.52754    
     32300  -32959.298      190.43712     -32768.861      191.59993      189.82616      281.64878    
     32400  -32945.319      185.37513     -32759.944      191.57202      189.79485      281.77003    
     32500  -32932.263      182.92063     -32749.342      191.54433      189.76451      281.89127    
     32600  -32922.94       184.73547     -32738.204      191.51405      189.73281      282.01251    
     32700  -32911.603      185.72377     -32725.88       191.48497      189.70322      282.13376    
     32800  -32896.791      185.64281     -32711.148      191.45466      189.67292      282.255      
     32900  -32884.003      189.25493     -32694.748      191.42362      189.64299      282.37625    
     33000  -32868.494      186.06911     -32682.425      191.39352      189.61419      282.49749    
     33100  -32859.882      184.23407     -32675.647      191.36139      189.58401      282.61873    
     33200  -32847.683      182.84447     -32664.838      191.33048      189.55532      282.73998    
     33300  -32836.139      185.41594     -32650.723      191.29934      189.52725      282.86122    
     33400  -32822.625      187.53432     -32635.091      191.26619      189.497        282.98246    
     33500  -32809.913      189.27383     -32620.639      191.23621      189.47023      283.10371    
     33600  -32791.64       186.44914     -32605.191      191.20283      189.4396       283.22495    
     33700  -32777.356      186.61291     -32590.743      191.17182      189.41131      283.34619    
     33800  -32769.484      187.24908     -32582.235      191.14124      189.38367      283.46744    
     33900  -32758.856      185.91219     -32572.944      191.10648      189.35102      283.58868    
     34000  -32743.678      183.36751     -32560.31       191.07809      189.32472      283.70992    
     34100  -32731.811      187.47575     -32544.335      191.04519      189.29355      283.83117    
     34200  -32716.416      189.2221      -32527.194      191.01341      189.26284      283.95241    
     34300  -32701.309      186.88335     -32514.426      190.98493      189.2339       284.07366    
     34400  -32692.86       189.29094     -32503.569      190.95174      189.19944      284.1949     
     34500  -32676.242      184.18532     -32492.057      190.92421      189.16999      284.31614    
     34600  -32666.235      185.77432     -32480.46       190.89431      189.13819      284.43739    
     34700  -32653.874      186.22936     -32467.644      190.8625       189.10333      284.55863    
     34800  -32639.472      187.08687     -32452.386      190.83706      189.07394      284.67987    
     34900  -32624.812      189.1522      -32435.66       190.80623      189.0383       284.80112    
     35000  -32611.886      189.39642     -32422.489      190.77795      189.00438      284.92236    
     35100  -32600.314      184.71635     -32415.598      190.7518       188.97211      285.0436     
     35200  -32591.405      186.91576     -32404.489      190.7221       188.93554      285.16485    
     35300  -32576.022      186.03812     -32389.984      190.69689      188.90375      285.28609    
     35400  -32562.094      188.376       -32373.718      190.66865      188.86864      285.40733    
     35500  -32548.296      189.3809      -32358.915      190.64119      188.83367      285.52858    
     35600  -32534.711      185.97438     -32348.737      190.61676      188.80061      285.64982    
     35700  -32521.621      180.22151     -32341.4        190.58729      188.76281      285.77107    
     35800  -32512.073      185.80264     -32326.27       190.56168      188.72915      285.89231    
     35900  -32494.964      186.30183     -32308.663      190.53542      188.69564      286.01355    
     36000  -32482.486      188.70078     -32293.785      190.50526      188.65919      286.1348     
     36100  -32462.991      182.71928     -32280.272      190.48033      188.62758      286.25604    
     36200  -32453.361      184.82814     -32268.533      190.45083      188.59178      286.37728    
     36300  -32443.724      183.85895     -32259.865      190.42183      188.55707      286.49853    
     36400  -32428.858      181.91844     -32246.94       190.39469      188.52546      286.61977    
     36500  -32414.106      185.47191     -32228.635      190.36334      188.49087      286.74101    
     36600  -32400.299      186.69592     -32213.603      190.33489      188.46012      286.86226    
     36700  -32389.295      188.91389     -32200.381      190.30437      188.42804      286.9835     
     36800  -32373.891      185.84121     -32188.05       190.27251      188.39514      287.10474    
     36900  -32362.473      185.01184     -32177.461      190.24325      188.36528      287.22599    
     37000  -32352.253      185.61691     -32166.636      190.21078      188.33394      287.34723    
     37100  -32335.127      184.44703     -32150.68       190.1782       188.30344      287.46847    
     37200  -32319.388      186.76708     -32132.621      190.14811      188.27602      287.58972    
     37300  -32306.459      187.60199     -32118.857      190.11428      188.24454      287.71096    
     37400  -32294.109      186.53614     -32107.573      190.08307      188.21585      287.83221    
     37500  -32283.811      185.66409     -32098.147      190.0517       188.18727      287.95345    
     37600  -32271.703      183.03711     -32088.666      190.01755      188.15664      288.07469    
     37700  -32258.072      183.01066     -32075.062      189.98643      188.12978      288.19594    
     37800  -32241.685      186.62754     -32055.057      189.95269      188.10015      288.31718    
     37900  -32222.363      184.00987     -32038.353      189.92016      188.07108      288.43842    
     38000  -32212.61       188.87912     -32023.73       189.88989      188.04327      288.55967    
     38100  -32197.735      186.78258     -32010.952      189.85603      188.01197      288.68091    
     38200  -32187.53       186.08845     -32001.441      189.82585      187.98402      288.80215    
     38300  -32175.323      184.72148     -31990.602      189.794        187.95427      288.9234     
     38400  -32159.631      186.2665      -31973.364      189.76067      187.92224      289.04464    
     38500  -32143.173      187.10065     -31956.072      189.73311      187.8952       289.16588    
     38600  -32129.331      186.60514     -31942.725      189.70005      187.86106      289.28713    
     38700  -32113.206      182.5359      -31930.67       189.67098      187.83026      289.40837    
     38800  -32103.2        184.24651     -31918.953      189.64293      187.80037      289.52962    
     38900  -32091.83       185.76287     -31906.067      189.61093      187.76598      289.65086    
     39000  -32076.494      185.59719     -31890.897      189.58532      187.73684      289.7721     
     39100  -32062.196      188.88133     -31873.315      189.55529      187.70166      289.89335    
     39200  -32044.865      186.0638      -31858.801      189.52864      187.66868      290.01459    
     39300  -32035.589      186.16445     -31849.425      189.50403      187.63721      290.13583    
     39400  -32024.529      185.05373     -31839.475      189.47383      187.60042      290.25708    
     39500  -32010.224      185.47559     -31824.748      189.45064      187.57027      290.37832    
     39600  -31993.613      184.55591     -31809.057      189.42456      187.53676      290.49956    
     39700  -31979.039      185.63307     -31793.406      189.39657      187.50043      290.62081    
     39800  -31964.969      186.61214     -31778.357      189.37482      187.46994      290.74205    
     39900  -31951.878      190.17069     -31761.708      189.34652      187.43363      290.86329    
     40000  -31934.401      188.70026     -31745.7        189.32112      187.40116      290.98454    
     40100  -31922.529      186.49257     -31736.037      189.29694      187.37036      291.10578    
     40200  -31912.047      185.82744     -31726.22       189.267        187.33391      291.22703    
     40300  -31897.82       184.86255     -31712.958      189.24391      187.30415      291.34827    
     40400  -31885.875      188.92195     -31696.953      189.2164       187.27103      291.46951    
     40500  -31864.125      185.70665     -31678.418      189.18761      187.23734      291.59076    
     40600  -31852.695      189.40296     -31663.292      189.16236      187.20832      291.712      
     40700  -31843.713      187.57002     -31656.143      189.13186      187.17523      291.83324    
     40800  -31828.476      183.63993     -31644.836      189.10395      187.14539      291.95449    
     40900  -31812.264      183.00028     -31629.264      189.07664      187.11702      292.07573    
     41000  -31798.581      186.63726     -31611.944      189.04573      187.08562      292.19697    
     41100  -31783.335      186.64204     -31596.693      189.01803      187.05822      292.31822    
     41200  -31771.855      187.33791     -31584.517      188.98791      187.03027      292.43946    
     41300  -31758.834      182.97817     -31575.856      188.95648      187.00167      292.5607     
     41400  -31744.669      181.92682     -31562.742      188.92805      186.97618      292.68195    
     41500  -31731.239      185.27542     -31545.963      188.8971       186.94854      292.80319    
     41600  -31717.194      186.69665     -31530.497      188.86657      186.92144      292.92443    
     41700  -31704.551      188.16518     -31516.386      188.83776      186.89693      293.04568    
     41800  -31686.348      184.02685     -31502.321      188.80571      186.8699       293.16692    
     41900  -31675.31       186.10083     -31489.21       188.77576      186.84453      293.28817    
     42000  -31662.45       184.9239      -31477.526      188.74587      186.81937      293.40941    
     42100  -31646.721      182.70532     -31464.016      188.71429      186.79147      293.53065    
     42200  -31631.739      185.55435     -31446.185      188.68532      186.76646      293.6519     
     42300  -31617.151      188.12385     -31429.028      188.65555      186.74065      293.77314    
     42400  -31602.937      187.21335     -31415.724      188.62454      186.71283      293.89438    
     42500  -31590.407      185.3936      -31405.014      188.59644      186.6876       294.01563    
     42600  -31576.8        183.09056     -31393.71       188.56734      186.66023      294.13687    
     42700  -31564.975      186.1952      -31378.78       188.53756      186.63198      294.25811    
     42800  -31546.98       189.1783      -31357.801      188.51047      186.60572      294.37936    
     42900  -31531.435      187.90389     -31343.531      188.48227      186.57764      294.5006     
     43000  -31519.685      185.63314     -31334.052      188.45476      186.54946      294.62184    
     43100  -31506.113      182.90105     -31323.212      188.42946      186.52217      294.74309    
     43200  -31493.978      185.81082     -31308.167      188.40189      186.49155      294.86433    
     43300  -31473.092      183.30545     -31289.786      188.37889      186.46443      294.98558    
     43400  -31462.746      188.12863     -31274.617      188.35434      186.43571      295.10682    
     43500  -31447.86       185.53108     -31262.329      188.32735      186.40401      295.22806    
     43600  -31433.716      184.41151     -31249.305      188.30619      186.37675      295.34931    
     43700  -31418.936      183.66315     -31235.273      188.28234      186.34544      295.47055    
     43800  -31408.131      186.5245      -31221.606      188.25898      186.31432      295.59179    
     43900  -31394.501      185.16684     -31209.334      188.23905      186.28674      295.71304    
     44000  -31381.9        184.39213     -31197.508      188.21324      186.25368      295.83428    
     44100  -31368.023      184.72362     -31183.299      188.19226      186.22571      295.95552    
     44200  -31347.336      183.13558     -31164.201      188.17107      186.19625      296.07677    
     44300  -31335.107      187.65982     -31147.447      188.14526      186.16227      296.19801    
     44400  -31322.572      188.15176     -31134.42       188.12643      186.1361       296.31925    
     44500  -31307.977      184.46346     -31123.514      188.1012       186.10516      296.4405     
     44600  -31297.723      186.16276     -31111.56       188.07728      186.07526      296.56174    
     44700  -31284.996      188.0851      -31096.911      188.05642      186.04849      296.68299    
     44800  -31266.748      185.46673     -31081.282      188.02976      186.0172       296.80423    
     44900  -31252.187      187.66034     -31064.527      188.00776      185.99086      296.92547    
     45000  -31236.435      187.8009      -31048.634      187.98425      185.96398      297.04672    
     45100  -31222.042      186.42956     -31035.613      187.95636      185.93501      297.16796    
     45200  -31210.778      183.78661     -31026.991      187.9343       185.91195      297.2892     
     45300  -31192.758      180.03413     -31012.724      187.90808      185.88558      297.41045    
     45400  -31179.317      184.42391     -30994.893      187.88202      185.86013      297.53169    
     45500  -31162.922      185.05657     -30977.866      187.85804      185.83804      297.65293    
     45600  -31152.268      188.55696     -30963.711      187.82856      185.81161      297.77418    
     45700  -31136.625      185.96097     -30950.664      187.80392      185.79069      297.89542    
     45800  -31120.359      182.56108     -30937.798      187.77779      185.76907      298.01666    
     45900  -31109.544      185.10039     -30924.443      187.74817      185.744        298.13791    
     46000  -31097.351      184.71163     -30912.64       187.72375      185.7247       298.25915    
     46100  -31083.824      185.35788     -30898.466      187.69587      185.70242      298.3804     
     46200  -31067.613      187.81805     -30879.795      187.66645      185.67956      298.50164    
     46300  -31048.7        185.86457     -30862.836      187.64197      185.66107      298.62288    
     46400  -31038.483      188.91916     -30849.563      187.61143      185.63651      298.74413    
     46500  -31023.243      182.76413     -30840.479      187.58562      185.61617      298.86537    
     46600  -31010.584      183.48128     -30827.103      187.55918      185.59521      298.98661    
     46700  -30995          184.07722     -30810.923      187.52973      185.57143      299.10786    
     46800  -30980.967      186.88546     -30794.082      187.5056       185.55254      299.2291     
     46900  -30965.754      187.91384     -30777.84       187.47817      185.52874      299.35034    
     47000  -30953.618      189.72047     -30763.897      187.45275      185.50565      299.47159    
     47100  -30937.415      182.6705      -30754.744      187.42962      185.4842       299.59283    
     47200  -30924.555      182.84614     -30741.709      187.40344      185.45869      299.71407    
     47300  -30907.175      183.55394     -30723.621      187.38069      185.43662      299.83532    
     47400  -30894.84       189.01064     -30705.83       187.35723      185.41235      299.95656    
     47500  -30880.93       189.60696     -30691.323      187.33478      185.38802      300.0778     
     47600  -30864.499      185.36314     -30679.136      187.31442      185.36386      300.19905    
     47700  -30851.607      186.19404     -30665.413      187.29115      185.3365       300.32029    
     47800  -30836.737      185.95011     -30650.787      187.27247      185.31331      300.44154    
     47900  -30822.344      186.01757     -30636.327      187.25106      185.28642      300.56278    
     48000  -30807.219      185.47719     -30621.742      187.23064      185.2599       300.68402    
     48100  -30791.323      184.99231     -30606.331      187.21295      185.23512      300.80527    
     48200  -30779.332      190.96491     -30588.367      187.19165      185.20648      300.92651    
     48300  -30760.642      187.21274     -30573.429      187.17433      185.18156      301.04775    
     48400  -30749.591      185.78476     -30563.806      187.15572      185.15517      301.169      
     48500  -30737.968      186.2951      -30551.673      187.13503      185.12648      301.29024    
     48600  -30724.808      188.36016     -30536.448      187.11794      185.10105      301.41148    
     48700  -30708.071      188.29881     -30519.772      187.09859      185.07456      301.53273    
     48800  -30689.731      189.49069     -30500.241      187.07871      185.04752      301.65397    
     48900  -30675.472      190.60555     -30484.867      187.06119      185.02314      301.77521    
     49000  -30662.069      185.59928     -30476.47       187.04         184.99534      301.89646    
     49100  -30651.149      187.94739     -30463.202      187.02162      184.97114      302.0177     
     49200  -30636.151      186.25919     -30449.892      187.00323      184.94763      302.13895    
     49300  -30621.702      185.11387     -30436.588      186.97953      184.92075      302.26019    
     49400  -30607.459      186.70525     -30420.754      186.9607       184.89887      302.38143    
     49500  -30588.455      187.38106     -30401.074      186.94029      184.87592      302.50268    
     49600  -30575.9        190.34925     -30385.551      186.91614      184.85097      302.62392    
     49700  -30559.26       184.1472      -30375.113      186.89755      184.83237      302.74516    
     49800  -30545.023      182.79524     -30362.228      186.87314      184.8094       302.86641    
     49900  -30530.98       184.86867     -30346.112      186.84957      184.78754      302.98765    
     50000  -30515.981      186.29917     -30329.682      186.82988      184.77037      303.10889    
     50100  -30502.508      187.47949     -30315.028      186.80287      184.74721      303.23014    
     50200  -30488.002      183.07481     -30304.928      186.77871      184.7277       303.35138    
     50300  -30475.858      184.02846     -30291.83       186.75702      184.71223      303.47262    
     50400  -30461.095      186.48236     -30274.612      186.72928      184.69049      303.59387    
     50500  -30444.679      189.90861     -30254.77       186.70568      184.67311      303.71511    
     50600  -30428.225      189.44649     -30238.779      186.68232      184.65629      303.83636    
     50700  -30418.136      186.48909     -30231.647      186.65451      184.63539      303.9576     
     50800  -30401.27       183.50506     -30217.765      186.63277      184.62065      304.07884    
     50900  -30389.937      189.09316     -30200.844      186.60663      184.60148      304.20009    
     51000  -30370.697      186.62294     -30184.074      186.58103      184.58186      304.32133    
     51100  -30355.71       187.12675     -30168.584      186.5596       184.56545      304.44257    
     51200  -30343.255      185.85003     -30157.405      186.53438      184.54497      304.56382    
     51300  -30332.322      186.34953     -30145.972      186.51114      184.52644      304.68506    
     51400  -30314.614      184.56914     -30130.045      186.48952      184.50914      304.8063     
     51500  -30297.074      184.4359      -30112.638      186.46466      184.48712      304.92755    
     51600  -30284.653      189.09599     -30095.557      186.44416      184.46801      305.04879    
     51700  -30269.809      187.8907      -30081.918      186.4233       184.44803      305.17003    
     51800  -30256.731      182.60456     -30074.127      186.40044      184.42573      305.29128    
     51900  -30238.62       181.40918     -30057.211      186.38054      184.40579      305.41252    
     52000  -30225.506      188.18682     -30037.319      186.36005      184.38329      305.53376    
     52100  -30209.005      188.19314     -30020.811      186.33907      184.35939      305.65501    
     52200  -30197.551      188.95478     -30008.596      186.32246      184.33889      305.77625    
     52300  -30183.08       185.59584     -29997.484      186.30162      184.31431      305.8975     
     52400  -30164.109      181.78934     -29982.319      186.28342      184.29197      306.01874    
     52500  -30150.72       185.0671      -29965.653      186.26575      184.26912      306.13998    
     52600  -30134.521      185.50725     -29949.013      186.24663      184.24355      306.26123    
     52700  -30122.58       189.23515     -29933.344      186.23149      184.22145      306.38247    
     52800  -30108.267      186.40104     -29921.866      186.21283      184.19614      306.50371    
     52900  -30093.672      184.19244     -29909.479      186.19604      184.17342      306.62496    
     53000  -30080.332      185.93806     -29894.394      186.17998      184.15034      306.7462     
     53100  -30064.861      188.33781     -29876.523      186.16126      184.12441      306.86744    
     53200  -30047.853      190.77259     -29857.08       186.1468       184.10182      306.98869    
     53300  -30033.147      189.78879     -29843.358      186.12819      184.07641      307.10993    
     53400  -30018.901      185.25553     -29833.645      186.11142      184.05402      307.23117    
     53500  -30002.991      183.82647     -29819.165      186.0957       184.03277      307.35242    
     53600  -29986.017      181.97024     -29804.046      186.07524      184.00756      307.47366    
     53700  -29972.974      186.03255     -29786.942      186.05832      183.98561      307.59491    
     53800  -29959.078      190.10004     -29768.978      186.04069      183.96416      307.71615    
     53900  -29943.916      188.1119      -29755.804      186.01892      183.93997      307.83739    
     54000  -29928.963      183.46288     -29745.5        186.00181      183.92125      307.95864    
     54100  -29916.561      185.6422      -29730.919      185.98099      183.89953      308.07988    
     54200  -29902.796      188.21658     -29714.579      185.9586       183.87659      308.20112    
     54300  -29880.044      184.46574     -29695.578      185.94157      183.85951      308.32237    
     54400  -29868.488      191.07272     -29677.415      185.91839      183.83815      308.44361    
     54500  -29854.778      187.87842     -29666.9        185.895        183.81748      308.56485    
     54600  -29839.509      184.9303      -29654.578      185.8768       183.8026       308.6861     
     54700  -29827.13       186.62257     -29640.508      185.85167      183.78073      308.80734    
     54800  -29810.248      184.51182     -29625.736      185.83081      183.76351      308.92858    
     54900  -29800.206      187.6493      -29612.557      185.81043      183.74798      309.04983    
     55000  -29783.199      182.32281     -29600.876      185.78429      183.72753      309.17107    
     55100  -29768.814      184.58123     -29584.233      185.76454      183.71297      309.29232    
     55200  -29747.91       185.46622     -29562.444      185.74131      183.69477      309.41356    
     55300  -29732.598      186.3215      -29546.276      185.71773      183.67608      309.5348     
     55400  -29719.553      186.25254     -29533.301      185.69759      183.66163      309.65605    
     55500  -29704.562      183.6792      -29520.882      185.67144      183.64186      309.77729    
     55600  -29692.273      186.17734     -29506.096      185.65062      183.62684      309.89853    
     55700  -29678.488      187.81017     -29490.678      185.62868      183.60956      310.01978    
     55800  -29664.375      188.33231     -29476.043      185.60432      183.58913      310.14102    
     55900  -29646.458      184.06989     -29462.388      185.58444      183.57401      310.26226    
     56000  -29629.899      181.96985     -29447.929      185.56068      183.55499      310.38351    
     56100  -29614.804      183.59646     -29431.207      185.53825      183.53665      310.50475    
     56200  -29601.062      188.32131     -29412.74       185.5182       183.51942      310.62599    
     56300  -29584.29       188.41398     -29395.876      185.49476      183.49763      310.74724    
     56400  -29573.434      189.90758     -29383.526      185.47583      183.47978      310.86848    
     56500  -29554.77       183.10108     -29371.669      185.45501      183.459        310.98972    
     56600  -29542.211      186.12014     -29356.091      185.43529      183.43908      311.11097    
     56700  -29528.248      189.12361     -29339.124      185.41726      183.42018      311.23221    
     56800  -29507.939      185.96822     -29321.971      185.39615      183.39721      311.35346    
     56900  -29494.328      186.79052     -29307.537      185.37816      183.37648      311.4747     
     57000  -29478.721      182.91249     -29295.808      185.36176      183.35636      311.59594    
     57100  -29466.367      184.88339     -29281.484      185.34261      183.33315      311.71719    
     57200  -29449.876      185.68695     -29264.189      185.32532      183.31143      311.83843    
     57300  -29433.898      189.99358     -29243.905      185.30905      183.29047      311.95967    
     57400  -29414.823      190.04768     -29224.776      185.28993      183.26625      312.08092    
     57500  -29400.112      185.83272     -29214.28       185.27536      183.2458       312.20216    
     57600  -29384.14       182.4458      -29201.694      185.25819      183.22223      312.3234     
     57700  -29373.055      185.18489     -29187.87       185.23989      183.19758      312.44465    
     57800  -29359.566      185.47519     -29174.09       185.22573      183.17751      312.56589    
     57900  -29343.55       183.48352     -29160.066      185.20781      183.1542       312.68713    
     58000  -29327.371      181.7948      -29145.576      185.1906       183.13135      312.80838    
     58100  -29315.648      184.45886     -29131.189      185.17465      183.10967      312.92962    
     58200  -29299.612      184.39971     -29115.212      185.15564      183.08559      313.05087    
     58300  -29282.872      187.43133     -29095.441      185.13997      183.06516      313.17211    
     58400  -29266.988      191.07882     -29075.909      185.12176      183.04236      313.29335    
     58500  -29250.46       187.36736     -29063.092      185.10379      183.02034      313.4146     
     58600  -29236.042      185.22153     -29050.82       185.08631      182.99973      313.53584    
     58700  -29221.683      186.79169     -29034.891      185.06643      182.97795      313.65708    
     58800  -29206.487      187.50776     -29018.979      185.04857      182.9587       313.77833    
     58900  -29192.416      187.08771     -29005.328      185.02914      182.93771      313.89957    
     59000  -29175.614      183.44413     -28992.17       185.01019      182.91725      314.02081    
     59100  -29159.038      183.32315     -28975.715      184.99041      182.89796      314.14206    
     59200  -29141.883      188.90814     -28952.975      184.96982      182.87862      314.2633     
     59300  -29125.004      190.42124     -28934.583      184.94924      182.86021      314.38454    
     59400  -29109.697      188.26451     -28921.432      184.92838      182.84176      314.50579    
     59500  -29095.709      187.21226     -28908.496      184.90672      182.82303      314.62703    
     59600  -29079.227      184.85704     -28894.37       184.88472      182.8044       314.74828    
     59700  -29067.806      188.08744     -28879.719      184.8647       182.78822      314.86952    
     59800  -29050.909      185.80765     -28865.101      184.84145      182.77007      314.99076    
     59900  -29035.142      184.17292     -28850.969      184.81955      182.75364      315.11201    
     60000  -29022.673      182.61268     -28840.061      184.79707      182.73632      315.23325    
     60100  -29006.142      183.6103      -28822.532      184.77405      182.71806      315.35449    
     60200  -28989.076      187.35714     -28801.719      184.75299      182.70171      315.47574    
     60300  -28970.828      187.43825     -28783.389      184.73072      182.6851       315.59698    
     60400  -28955.075      187.87855     -28767.196      184.70658      182.66657      315.71822    
     60500  -28941.476      187.65182     -28753.824      184.68567      182.65155      315.83947    
     60600  -28924.025      186.20254     -28737.822      184.6634       182.63429      315.96071    
     60700  -28911.257      189.72396     -28721.534      184.6415       182.61636      316.08195    
     60800  -28892.566      186.75679     -28705.809      184.6207       182.59958      316.2032     
     60900  -28876.498      183.87331     -28692.624      184.59805      182.58061      316.32444    
     61000  -28860.63       184.70985     -28675.921      184.57707      182.56307      316.44569    
     61100  -28842.02       183.74473     -28658.276      184.5569       182.54632      316.56693    
     61200  -28829.389      188.5773      -28640.811      184.53406      182.52616      316.68817    
     61300  -28812.952      188.96108     -28623.99       184.51429      182.50774      316.80942    
     61400  -28793.273      184.9048      -28608.368      184.49309      182.48765      316.93066    
     61500  -28780.522      187.16052     -28593.361      184.47346      182.468        317.0519     
     61600  -28763.752      186.04151     -28577.71       184.45502      182.44875      317.17315    
     61700  -28747.903      187.33674     -28560.566      184.4339       182.4271       317.29439    
     61800  -28731.117      187.24692     -28543.87       184.41596      182.40727      317.41563    
     61900  -28713.377      184.68324     -28528.694      184.39669      182.38569      317.53688    
     62000  -28700.76       186.61168     -28514.148      184.378        182.36404      317.65812    
     62100  -28684.09       184.98048     -28499.109      184.36255      182.34442      317.77936    
     62200  -28668.958      184.80358     -28484.154      184.34238      182.31987      317.90061    
     62300  -28652.892      179.71712     -28473.175      184.32677      182.29963      318.02185    
     62400  -28637.347      184.78789     -28452.559      184.31031      182.27899      318.14309    
     62500  -28617.99       188.40962     -28429.581      184.29011      182.2542       318.26434    
     62600  -28597.496      187.70565     -28409.791      184.27581      182.23517      318.38558    
     62700  -28580.129      185.27118     -28394.858      184.25718      182.21152      318.50683    
     62800  -28566.835      187.01657     -28379.818      184.23976      182.18894      318.62807    
     62900  -28552.462      190.13185     -28362.33       184.22498      182.16894      318.74931    
     63000  -28533.56       187.863       -28345.697      184.20546      182.14479      318.87056    
     63100  -28515.924      185.76114     -28330.163      184.18976      182.12435      318.9918     
     63200  -28496.038      181.91862     -28314.119      184.17194      182.10266      319.11304    
     63300  -28484.384      188.36062     -28296.023      184.15293      182.07975      319.23429    
     63400  -28461.65       183.58513     -28278.065      184.13639      182.05939      319.35553    
     63500  -28448.587      187.18942     -28261.398      184.11744      182.03679      319.47677    
     63600  -28430.169      183.64767     -28246.521      184.10012      182.01652      319.59802    
     63700  -28413.094      183.8124      -28229.282      184.08122      181.99478      319.71926    
     63800  -28396.518      186.60432     -28209.913      184.06207      181.9736       319.8405     
     63900  -28378.203      186.54551     -28191.658      184.04466      181.95471      319.96175    
     64000  -28361.271      185.9729      -28175.298      184.02273      181.93215      320.08299    
     64100  -28345.453      185.19441     -28160.259      184.00554      181.91492      320.20424    
     64200  -28328.074      184.52298     -28143.551      183.9842       181.89425      320.32548    
     64300  -28306.488      183.0189      -28123.469      183.96384      181.87487      320.44672    
     64400  -28288.196      184.57545     -28103.62       183.94547      181.85776      320.56797    
     64500  -28271.984      184.45567     -28087.528      183.92193      181.83602      320.68921    
     64600  -28255.468      184.2661      -28071.202      183.90389      181.81988      320.81045    
     64700  -28238.714      185.62137     -28053.092      183.88227      181.80119      320.9317     
     64800  -28222.562      187.97957     -28034.582      183.85918      181.78163      321.05294    
     64900  -28202.281      187.34596     -28014.935      183.84064      181.76689      321.17418    
     65000  -28185.812      183.29888     -28002.513      183.81635      181.74723      321.29543    
     65100  -28167.641      183.90049     -27983.74       183.79613      181.73172      321.41667    
     65200  -28149          186.56733     -27962.433      183.77275      181.71321      321.53791    
     65300  -28126.958      186.17347     -27940.784      183.7505       181.69567      321.65916    
     65400  -28112.514      188.08954     -27924.424      183.73037      181.68001      321.7804     
     65500  -28093.832      185.41134     -27908.421      183.7065       181.66046      321.90165    
     65600  -28077.734      188.00267     -27889.731      183.68711      181.6459       322.02289    
     65700  -28058.261      186.5406      -27871.72       183.6632       181.62636      322.14413    
     65800  -28041.467      187.87221     -27853.594      183.6425       181.61021      322.26538    
     65900  -28022.884      185.84404     -27837.04       183.62205      181.59363      322.38662    
     66000  -28004.492      182.6044      -27821.888      183.59852      181.5735       322.50786    
     66100  -27985.319      185.64816     -27799.67       183.58077      181.55847      322.62911    
     66200  -27964.401      187.34278     -27777.059      183.55733      181.53727      322.75035    
     66300  -27939.575      185.0813      -27754.494      183.53787      181.51976      322.87159    
     66400  -27926.043      187.73727     -27738.306      183.51813      181.50191      322.99284    
     66500  -27906.174      186.27179     -27719.902      183.49592      181.48105      323.11408    
     66600  -27885.703      185.49488     -27700.209      183.47811      181.46468      323.23532    
     66700  -27866.045      184.11898     -27681.926      183.456        181.44331      323.35657    
     66800  -27851.657      189.71326     -27661.944      183.43772      181.42525      323.47781    
     66900  -27830.147      188.50169     -27641.645      183.41844      181.4052       323.59905    
     67000  -27809.49       188.33932     -27621.151      183.39778      181.38342      323.7203     
     67100  -27789.587      188.9766      -27600.61       183.38142      181.36535      323.84154    
     67200  -27768.416      187.25122     -27581.164      183.36126      181.34329      323.96279    
     67300  -27749.359      187.6956      -27561.664      183.34388      181.32363      324.08403    
     67400  -27729.552      187.56223     -27541.99       183.32686      181.30353      324.20527    
     67500  -27709.691      187.28353     -27522.408      183.30811      181.28108      324.32652    
     67600  -27692.183      189.01246     -27503.171      183.29283      181.26148      324.44776    
     67700  -27671.06       187.95345     -27483.106      183.27431      181.2388       324.569      
     67800  -27652.328      189.51489     -27462.813      183.25802      181.21836      324.69025    
     67900  -27630.277      188.03625     -27442.241      183.24133      181.19731      324.81149    
     68000  -27609.352      188.22361     -27421.128      183.22365      181.17549      324.93273    
     68100  -27588.972      188.52737     -27400.444      183.20742      181.15509      325.05398    
     68200  -27568.689      187.80809     -27380.881      183.1897       181.13323      325.17522    
     68300  -27551.278      191.36456     -27359.914      183.17316      181.11243      325.29646    
     68400  -27527.036      187.56136     -27339.475      183.15637      181.09148      325.41771    
     68500  -27509.965      190.67342     -27319.291      183.13864      181.06991      325.53895    
     68600  -27485.912      188.29743     -27297.615      183.12198      181.0497       325.6602     
     68700  -27465.095      188.48638     -27276.609      183.1043       181.02909      325.78144    
     68800  -27445.106      189.42209     -27255.684      183.08631      181.00853      325.90268    
     68900  -27427.335      191.79416     -27235.54       183.0688       180.98872      326.02393    
     69000  -27404.251      189.21268     -27215.038      183.05049      180.96861      326.14517    
     69100  -27380.04       186.53492     -27193.505      183.03203      180.94923      326.26641    
     69200  -27361.152      189.56709     -27171.585      183.01368      180.93025      326.38766    
     69300  -27338.56       188.91488     -27149.645      182.99425      180.91083      326.5089     
     69400  -27316.177      188.34326     -27127.833      182.97654      180.89334      326.63014    
     69500  -27290.492      185.60836     -27104.884      182.95596      180.87327      326.75139    
     69600  -27269.754      187.26184     -27082.492      182.93771      180.85585      326.87263    
     69700  -27249.978      188.65082     -27061.327      182.91881      180.83821      326.99387    
     69800  -27227.133      187.02824     -27040.105      182.89734      180.81899      327.11512    
     69900  -27208.799      191.1568      -27017.643      182.87926      180.80339      327.23636    
     70000  -27185.828      190.13463     -26995.694      182.85737      180.78487      327.35761    
     70100  -27161.429      188.26539     -26973.164      182.83736      180.76807      327.47885    
     70200  -27143.029      192.36157     -26950.667      182.81846      180.75246      327.60009    
     70300  -27114.911      186.32082     -26928.59       182.79558      180.73318      327.72134    
     70400  -27096.082      190.61125     -26905.47       182.77833      180.71947      327.84258    
     70500  -27070.52       187.72696     -26882.793      182.756        180.70115      327.96382    
     70600  -27049.305      189.35473     -26859.95       182.7355       180.68465      328.08507    
     70700  -27025.468      188.02444     -26837.443      182.71706      180.67016      328.20631    
     70800  -27003.098      188.65833     -26814.44       182.69381      180.65069      328.32755    
     70900  -26982.179      190.53317     -26791.645      182.6763       180.63696      328.4488     
     71000  -26959.386      190.40318     -26768.983      182.65485      180.61905      328.57004    
     71100  -26935.371      189.08907     -26746.282      182.63425      180.60183      328.69128    
     71200  -26911.934      189.48709     -26722.447      182.61621      180.58723      328.81253    
     71300  -26890.858      191.5684      -26699.29       182.59389      180.56814      328.93377    
     71400  -26860.133      185.06124     -26675.072      182.5758       180.55348      329.05502    
     71500  -26842.929      190.81597     -26652.113      182.55518      180.53553      329.17626    
     71600  -26816.985      188.41938     -26628.565      182.53545      180.51789      329.2975     
     71700  -26797.194      192.12953     -26605.065      182.51811      180.50194      329.41875    
     71800  -26777.391      195.94947     -26581.441      182.49708      180.4819       329.53999    
     71900  -26745.882      189.89348     -26555.989      182.47966      180.46559      329.66123    
     72000  -26719.465      188.47488     -26530.99       182.46078      180.44749      329.78248    
     72100  -26698.472      191.75358     -26506.718      182.4416       180.42865      329.90372    
     72200  -26672.785      191.24683     -26481.538      182.42501      180.41183      330.02496    
     72300  -26651.383      194.30952     -26457.074      182.40586      180.39153      330.14621    
     72400  -26625.343      191.23368     -26434.109      182.38955      180.37367      330.26745    
     72500  -26602.658      192.13472     -26410.523      182.37212      180.3543       330.38869    
     72600  -26576.655      191.1139      -26385.541      182.35411      180.33456      330.50994    
[...]
     85100  -35129.633      192.16578     -34937.467      184.33354      181.17338      345.66538    
     85200  -35129.107      180.42146     -34948.685      184.36109      181.1974       345.78663    
     85300  -35133.751      181.04453     -34952.706      184.37337      181.22204      345.90787    
     85400  -35123.394      178.67485     -34944.719      184.3797       181.24917      346.02911    
     85500  -35110.405      187.60586     -34922.799      184.38773      181.27958      346.15036    
     85600  -35096.296      206.25538     -34890.041      184.39364      181.30888      346.2716     
     85700  -35110.355      196.89553     -34913.459      184.3994       181.33654      346.39284    
     85800  -35131.317      179.51136     -34951.806      184.40312      181.35797      346.51409    
     85900  -35148.756      175.56315     -34973.193      184.41505      181.38312      346.63533    
     86000  -35152.273      178.44149     -34973.831      184.42368      181.39946      346.75657    
     86100  -35145.337      185.90506     -34959.432      184.43518      181.41232      346.87782    
     86200  -35134.096      192.7407      -34941.356      184.45215      181.4294       346.99906    
     86300  -35132.426      195.73454     -34936.692      184.46962      181.4411       347.12031    
     86400  -35132.295      184.53419     -34947.761      184.49451      181.45589      347.24155    
     86500  -35126.592      172.15469     -34954.437      184.51613      181.46097      347.36279    
     86600  -35117.461      177.41856     -34940.043      184.53971      181.46924      347.48404    
     86700  -35106.319      192.16414     -34914.155      184.56146      181.47338      347.60528    
     86800  -35097.041      200.33194     -34896.709      184.58267      181.472        347.72652    
     86900  -35098.622      193.6619      -34904.96       184.60725      181.47479      347.84777    
     87000  -35115.576      184.58002     -34930.996      184.63115      181.47558      347.96901    
     87100  -35128.96       177.06956     -34951.891      184.65852      181.48275      348.09025    
     87200  -35132.647      178.55338     -34954.094      184.67691      181.48511      348.2115     
     87300  -35128.754      186.82764     -34941.926      184.70391      181.49694      348.33274    
     87400  -35127.406      194.41526     -34932.991      184.72339      181.50187      348.45398    
     87500  -35127.32       189.49753     -34937.823      184.74499      181.50731      348.57523    
     87600  -35130.775      182.24539     -34948.529      184.76934      181.51531      348.69647    
     87700  -35134.088      179.38983     -34954.698      184.78895      181.51912      348.81771    
     87800  -35128.065      179.30432     -34948.761      184.80789      181.52482      348.93896    
     87900  -35116.882      186.85921     -34930.023      184.82312      181.52784      349.0602     
     88000  -35109.053      194.23697     -34914.816      184.8395       181.53176      349.18145    
     88100  -35103.937      188.59484     -34915.342      184.84768      181.53085      349.30269    
     88200  -35115.35       188.33846     -34927.012      184.86035      181.535        349.42393    
     88300  -35126.267      184.64314     -34941.624      184.87818      181.54244      349.54518    
     88400  -35134.786      182.53083     -34952.255      184.89695      181.54778      349.66642    
     88500  -35137.89       184.34011     -34953.549      184.91535      181.55241      349.78766    
     88600  -35136.339      186.56074     -34949.778      184.93218      181.55811      349.90891    
     88700  -35133.221      185.31641     -34947.904      184.94504      181.56461      350.03015    
     88800  -35135.285      186.65581     -34948.63       184.95377      181.57298      350.15139    
     88900  -35129.965      182.04667     -34947.919      184.96325      181.58486      350.27264    
     89000  -35126.981      185.44771     -34941.534      184.96681      181.59791      350.39388    
     89100  -35120.843      187.62787     -34933.215      184.96471      181.61302      350.51512    
     89200  -35116.86       188.97775     -34927.882      184.9625       181.63076      350.63637    
     89300  -35114.845      189.16833     -34925.676      184.95872      181.65265      350.75761    
     89400  -35120.089      190.41536     -34929.674      184.95057      181.67477      350.87886    
     89500  -35127.198      188.18367     -34939.014      184.94385      181.69897      351.0001     
     89600  -35130.232      182.3218      -34947.91       184.93944      181.72517      351.12134    
     89700  -35133.772      183.24611     -34950.526      184.93416      181.74885      351.24259    
     89800  -35133.4        186.75314     -34946.647      184.92981      181.77124      351.36383    
     89900  -35134.311      191.1511      -34943.16       184.92621      181.7905       351.48507    
     90000  -35130.824      185.58443     -34945.24       184.92513      181.80738      351.60632    
     90100  -35127.921      181.47667     -34946.444      184.92633      181.82301      351.72756    
     90200  -35126.766      185.95815     -34940.808      184.93035      181.83679      351.8488     
     90300  -35120.067      190.12868     -34929.938      184.93664      181.84583      351.97005    
     90400  -35107.285      186.45398     -34920.831      184.94552      181.84784      352.09129    
     90500  -35110.956      192.77739     -34918.179      184.95945      181.84608      352.21253    
     90600  -35115.292      189.68219     -34925.61       184.97942      181.84276      352.33378    
     90700  -35123.341      183.91623     -34939.425      185.00267      181.83424      352.45502    
     90800  -35135.875      184.95642     -34950.919      185.02829      181.82341      352.57627    
     90900  -35139.176      183.23432     -34955.941      185.05316      181.81124      352.69751    
     91000  -35137.403      183.0338      -34954.369      185.0793       181.79915      352.81875    
     91100  -35134.846      185.28474     -34949.561      185.10047      181.78155      352.94       
     91200  -35133.866      188.54433     -34945.322      185.12438      181.76647      353.06124    
     91300  -35124.334      182.55479     -34941.779      185.14523      181.74982      353.18248    
     91400  -35125.008      189.47691     -34935.531      185.16556      181.73564      353.30373    
     91500  -35117.134      187.83197     -34929.302      185.18354      181.72456      353.42497    
     91600  -35114.742      188.77849     -34925.963      185.20109      181.71579      353.54621    
     91700  -35115.803      187.20962     -34928.593      185.21654      181.70872      353.66746    
     91800  -35121.529      188.19949     -34933.329      185.22266      181.70351      353.7887     
     91900  -35119.808      182.11531     -34937.693      185.23191      181.7064       353.90994    
     92000  -35125.679      185.1706      -34940.508      185.23074      181.70696      354.03119    
     92100  -35130.823      187.32584     -34943.498      185.2352       181.71545      354.15243    
     92200  -35131.97       185.69218     -34946.278      185.23338      181.72208      354.27368    
     92300  -35133.514      183.82383     -34949.69       185.23542      181.73499      354.39492    
     92400  -35128.874      179.99478     -34948.879      185.22939      181.74841      354.51616    
     92500  -35129.375      187.00082     -34942.374      185.22287      181.76486      354.63741    
     92600  -35123.24       189.9021      -34933.338      185.218        181.78274      354.75865    
     92700  -35116.088      186.78805     -34929.3        185.21114      181.79899      354.87989    
     92800  -35118.991      187.89211     -34931.099      185.20549      181.8141       355.00114    
     92900  -35120.231      185.12966     -34935.101      185.20086      181.82838      355.12238    
     93000  -35124.397      187.80397     -34936.593      185.19926      181.84014      355.24362    
     93100  -35126.318      188.17464     -34938.144      185.19948      181.84934      355.36487    
     93200  -35131.062      188.41859     -34942.643      185.1999       181.8547       355.48611    
     93300  -35136.439      186.51518     -34949.924      185.20376      181.86165      355.60735    
     93400  -35136.561      181.68607     -34954.875      185.20632      181.86203      355.7286     
     93500  -35135.527      181.73323     -34953.793      185.21339      181.86743      355.84984    
     93600  -35130.934      184.8254      -34946.109      185.21728      181.86735      355.97108    
     93700  -35125.616      189.517       -34936.099      185.22418      181.86844      356.09233    
     93800  -35115.938      187.98586     -34927.952      185.22812      181.8636       356.21357    
     93900  -35113.505      188.07907     -34925.426      185.23547      181.861        356.33482    
     94000  -35113.99       186.21743     -34927.772      185.24264      181.85882      356.45606    
     94100  -35118.402      186.23863     -34932.163      185.24697      181.85199      356.5773     
     94200  -35118.781      183.8694      -34934.911      185.25297      181.84878      356.69855    
     94300  -35124.343      187.40371     -34936.939      185.26179      181.84429      356.81979    
     94400  -35126.786      186.7321      -34940.053      185.26935      181.83773      356.94103    
     94500  -35134.22       189.26628     -34944.954      185.27856      181.83427      357.06228    
     94600  -35135.668      184.84383     -34950.824      185.28689      181.82913      357.18352    
     94700  -35137.243      182.48896     -34954.754      185.29147      181.82013      357.30476    
     94800  -35136.369      184.67104     -34951.698      185.29891      181.81243      357.42601    
     94900  -35128.501      186.80727     -34941.693      185.30479      181.80382      357.54725    
     95000  -35121.107      190.25161     -34930.855      185.31202      181.79741      357.66849    
     95100  -35113.97       188.06875     -34925.901      185.31995      181.79172      357.78974    
     95200  -35116.021      188.15991     -34927.861      185.3287       181.78836      357.91098    
     95300  -35121.98       187.4539      -34934.526      185.33292      181.78433      358.03223    
     95400  -35122.508      181.9388      -34940.569      185.33768      181.7812       358.15347    
     95500  -35131.461      187.20423     -34944.257      185.34107      181.78091      358.27471    
     95600  -35136.227      188.41578     -34947.812      185.34402      181.78157      358.39596    
     95700  -35136.9        184.45642     -34952.443      185.34569      181.7826       358.5172     
     95800  -35140.777      185.83038     -34954.947      185.34449      181.78515      358.63844    
     95900  -35136.57       184.01136     -34952.558      185.34291      181.7885       358.75969    
     96000  -35128.118      183.31059     -34944.807      185.33667      181.79118      358.88093    
     96100  -35120.933      186.74491     -34934.188      185.33282      181.79517      359.00217    
     96200  -35119.024      191.45621     -34927.567      185.32711      181.8005       359.12342    
     96300  -35118.275      189.71574     -34928.559      185.32057      181.80407      359.24466    
     96400  -35114.759      183.34452     -34931.415      185.31683      181.80895      359.3659     
     96500  -35119.288      188.05714     -34931.231      185.31172      181.81221      359.48715    
     96600  -35114.419      186.00059     -34928.418      185.30615      181.81211      359.60839    
     96700  -35121.473      192.09997     -34929.373      185.30158      181.81326      359.72964    
     96800  -35126.29       188.4152      -34937.875      185.29488      181.81082      359.85088    
     96900  -35134.35       184.32296     -34950.027      185.28984      181.81196      359.97212    
     97000  -35136.69       181.0359      -34955.654      185.28087      181.80779      360.09337    
     97100  -35133.453      182.3081      -34951.145      185.27653      181.80704      360.21461    
     97200  -35128.928      189.77736     -34939.151      185.27186      181.79879      360.33585    
     97300  -35121.9        191.625       -34930.275      185.27206      181.79103      360.4571     
     97400  -35122.023      190.87422     -34931.149      185.27457      181.78087      360.57834    
     97500  -35121.645      183.64984     -34937.995      185.27753      181.76995      360.69958    
     97600  -35124.844      184.09648     -34940.747      185.28293      181.75873      360.82083    
     97700  -35122.713      186.08898     -34936.624      185.28933      181.74814      360.94207    
     97800  -35121.707      189.92277     -34931.784      185.29486      181.73535      361.06331    
     97900  -35123.773      187.18014     -34936.593      185.30515      181.72552      361.18456    
     98000  -35135.784      186.92666     -34948.857      185.31046      181.70987      361.3058     
     98100  -35141.162      182.41968     -34958.742      185.32381      181.69953      361.42704    
     98200  -35136.91       178.53074     -34958.38       185.33041      181.68359      361.54829    
     98300  -35138.33       189.12301     -34949.207      185.34199      181.6745       361.66953    
     98400  -35129.791      191.33013     -34938.461      185.34476      181.6607       361.79078    
     98500  -35122.776      189.26084     -34933.515      185.34915      181.64992      361.91202    
     98600  -35119.374      184.33324     -34935.04       185.3537       181.64196      362.03326    
     98700  -35120.07       184.62799     -34935.442      185.35058      181.6308       362.15451    
     98800  -35113.154      181.94409     -34931.21       185.35249      181.62995      362.27575    
     98900  -35114.513      188.63537     -34925.878      185.34216      181.62133      362.39699    
     99000  -35117.5        191.15879     -34926.341      185.34058      181.62136      362.51824    
     99100  -35123.094      186.59721     -34936.497      185.33055      181.61549      362.63948    
     99200  -35131.233      182.86729     -34948.366      185.31954      181.61036      362.76072    
     99300  -35135.179      182.62347     -34952.555      185.31128      181.6101       362.88197    
     99400  -35129.586      181.95294     -34947.634      185.29455      181.60171      363.00321    
     99500  -35127.409      189.64291     -34937.766      185.28332      181.60005      363.12445    
     99600  -35120.547      188.98285     -34931.564      185.2681       181.59257      363.2457     
     99700  -35120.179      187.74266     -34932.436      185.25403      181.58605      363.36694    
     99800  -35118.916      183.24961     -34935.666      185.24079      181.58066      363.48819    
     99900  -35119.146      183.90476     -34935.241      185.22704      181.57145      363.60943    
    100000  -35121.44       189.26284     -34932.177      185.2194       181.5666       363.73067    
    100100  -35119.988      189.27697     -34930.711      185.20881      181.55406      363.85192    
    100200  -35124.907      187.99767     -34936.91       185.20666      181.54575      363.97316    
    100300  -35132.418      184.67307     -34947.745      185.20028      181.53182      364.0944     
    100400  -35138.547      182.83673     -34955.71       185.19466      181.51647      364.21565    
    100500  -35138.581      183.93821     -34954.643      185.19237      181.50469      364.33689    
    100600  -35133.012      185.71501     -34947.297      185.1889       181.48978      364.45813    
    100700  -35131.653      189.55563     -34942.097      185.18717      181.47529      364.57938    
    100800  -35128.776      186.83243     -34941.944      185.18416      181.45812      364.70062    
    100900  -35128.519      184.27473     -34944.244      185.18632      181.44498      364.82186    
    101000  -35125.997      181.96169     -34944.036      185.18104      181.42627      364.94311    

===================================================================================
=   BAD TERMINATION OF ONE OF YOUR APPLICATION PROCESSES
=   RANK 0 PID 1067099 RUNNING AT amax
=   KILLED BY SIGNAL: 15 (Terminated)
===================================================================================

===================================================================================
=   BAD TERMINATION OF ONE OF YOUR APPLICATION PROCESSES
=   RANK 1 PID 1067102 RUNNING AT amax
=   KILLED BY SIGNAL: 15 (Terminated)
===================================================================================

===================================================================================
=   BAD TERMINATION OF ONE OF YOUR APPLICATION PROCESSES
=   RANK 2 PID 1067103 RUNNING AT amax
=   KILLED BY SIGNAL: 15 (Terminated)
===================================================================================

===================================================================================
=   BAD TERMINATION OF ONE OF YOUR APPLICATION PROCESSES
=   RANK 3 PID 1067106 RUNNING AT amax
=   KILLED BY SIGNAL: 15 (Terminated)
===================================================================================

===================================================================================
=   BAD TERMINATION OF ONE OF YOUR APPLICATION PROCESSES
=   RANK 4 PID 1067107 RUNNING AT amax
=   KILLED BY SIGNAL: 15 (Terminated)
===================================================================================

===================================================================================
=   BAD TERMINATION OF ONE OF YOUR APPLICATION PROCESSES
=   RANK 5 PID 1067110 RUNNING AT amax
=   KILLED BY SIGNAL: 15 (Terminated)
===================================================================================

===================================================================================
=   BAD TERMINATION OF ONE OF YOUR APPLICATION PROCESSES
=   RANK 6 PID 1067111 RUNNING AT amax
=   KILLED BY SIGNAL: 15 (Terminated)
===================================================================================

===================================================================================
=   BAD TERMINATION OF ONE OF YOUR APPLICATION PROCESSES
=   RANK 7 PID 1067114 RUNNING AT amax
=   KILLED BY SIGNAL: 15 (Terminated)
===================================================================================

===================================================================================
=   BAD TERMINATION OF ONE OF YOUR APPLICATION PROCESSES
=   RANK 8 PID 1067115 RUNNING AT amax
=   KILLED BY SIGNAL: 15 (Terminated)
===================================================================================

===================================================================================
=   BAD TERMINATION OF ONE OF YOUR APPLICATION PROCESSES
=   RANK 9 PID 1067118 RUNNING AT amax
=   KILLED BY SIGNAL: 15 (Terminated)
===================================================================================

===================================================================================
=   BAD TERMINATION OF ONE OF YOUR APPLICATION PROCESSES
=   RANK 10 PID 1067120 RUNNING AT amax
=   KILLED BY SIGNAL: 15 (Terminated)
===================================================================================

===================================================================================
=   BAD TERMINATION OF ONE OF YOUR APPLICATION PROCESSES
=   RANK 11 PID 1067122 RUNNING AT amax
=   KILLED BY SIGNAL: 15 (Terminated)
===================================================================================
