LAMMPS (2 Aug 2023 - Update 3)
OMP_NUM_THREADS environment is not set. Defaulting to 1 thread. (src/comm.cpp:98)
  using 1 OpenMP thread(s) per MPI task
Reading data file ...
  orthogonal box = (-100 -100 -2.3312515) to (100 100 46.166171)
  3 by 4 by 1 MPI processor grid
  reading atoms ...
  1320 atoms
  read_data CPU = 0.064 seconds
Replication is creating a 1x1x1 = 1 times larger system...
  orthogonal box = (-100 -100 -2.3312515) to (100 100 46.166171)
  3 by 4 by 1 MPI processor grid
  1320 atoms
  replicate CPU = 0.172 seconds
System init for write_data ...
WARNING: Communication cutoff is 0.0. No ghost atoms will be generated. Atoms may get lost. (src/comm_brick.cpp:210)
Reading airebo potential file CH.airebo with DATE: 2011-10-25
Reading airebo potential file CH.airebo with DATE: 2011-10-25
Reading airebo potential file CH.airebo with DATE: 2011-10-25
Neighbor list info ...
  update: every = 1 steps, delay = 0 steps, check = yes
  max neighbors/atom: 2000, page size: 100000
  master list distance cutoff = 13.2
  ghost atom cutoff = 13.2
  binsize = 6.6, bins = 31 31 8
  6 neighbor lists, perpetual/occasional/extra = 6 0 0
  (1) pair airebo, perpetual, skip from (5)
      attributes: full, newton on, ghost
      pair build: skip/ghost
      stencil: none
      bin: none
  (2) pair airebo, perpetual, skip from (5)
      attributes: full, newton on, ghost
      pair build: skip/ghost
      stencil: none
      bin: none
  (3) pair airebo, perpetual, skip from (5)
      attributes: full, newton on, ghost
      pair build: skip/ghost
      stencil: none
      bin: none
  (4) pair lj/cut, perpetual, skip from (6)
      attributes: half, newton on, cut 13
      pair build: skip
      stencil: none
      bin: none
  (5) neighbor class addition, perpetual
      attributes: full, newton on, ghost
      pair build: full/bin/ghost
      stencil: full/ghost/bin/3d
      bin: standard
  (6) neighbor class addition, perpetual
      attributes: half, newton on, cut 13
      pair build: half/bin/atomonly/newton
      stencil: half/bin/3d
      bin: standard
Setting up sd style minimization ...
  Unit style    : metal
  Current step  : 0
Per MPI rank memory allocation (min/avg/max) = 9.701 | 10.06 | 11.85 Mbytes
   Step          Temp          E_pair         E_mol          TotEng         Press     
         0   0             -8067.6945      0             -8067.6945      5481.8219    
        30   0             -9543.5331      0             -9543.5331      34.778352    
Loop time of 1.91713 on 12 procs for 30 steps with 1320 atoms

85.9% CPU use with 12 MPI tasks x 1 OpenMP threads

Minimization stats:
  Stopping criterion = energy tolerance
  Energy initial, next-to-last, final = 
     -8067.69450804938  -9542.92407174104  -9543.53313632801
  Force two-norm initial, final = 1967.0767 9.8924554
  Force max component initial, final = 534.82797 1.9411106
  Final line search alpha, max atom move = 0.051917894 0.10077838
  Iterations, force evaluations = 30 54

MPI task timing breakdown:
Section |  min time  |  avg time  |  max time  |%varavg| %total
---------------------------------------------------------------
Pair    | 4.4129e-05 | 0.093878   | 0.65435    |  69.5 |  4.90
Neigh   | 0          | 0          | 0          |   0.0 |  0.00
Comm    | 1.6838e-05 | 0.016656   | 0.1973     |  42.2 |  0.87
Output  | 0          | 0          | 0          |   0.0 |  0.00
Modify  | 0          | 0          | 0          |   0.0 |  0.00
Other   |            | 1.807      |            |       | 94.23

Nlocal:            110 ave         680 max           0 min
Histogram: 10 0 0 0 0 0 0 0 0 2
Nghost:            227 ave        1382 max           0 min
Histogram: 10 0 0 0 0 0 0 0 0 2
Neighs:              0 ave           0 max           0 min
Histogram: 12 0 0 0 0 0 0 0 0 0

Total # of neighbors = 0
Ave neighs/atom = 0
Neighbor list builds = 0
Dangerous builds = 0
Setting up Verlet run ...
  Unit style    : metal
  Current step  : 30
  Time step     : 0.001
Per MPI rank memory allocation (min/avg/max) = 10.33 | 10.68 | 12.48 Mbytes
   Step          Temp          E_pair         E_mol          TotEng         Press          Volume    
        30   300           -9543.5331      0             -9492.3849      62.940847      1939896.9    
Loop time of 0.00131866 on 12 procs for 0 steps with 1320 atoms

75.2% CPU use with 12 MPI tasks x 1 OpenMP threads

MPI task timing breakdown:
Section |  min time  |  avg time  |  max time  |%varavg| %total
---------------------------------------------------------------
Pair    | 0          | 0          | 0          |   0.0 |  0.00
Neigh   | 0          | 0          | 0          |   0.0 |  0.00
Comm    | 0          | 0          | 0          |   0.0 |  0.00
Output  | 0          | 0          | 0          |   0.0 |  0.00
Modify  | 0          | 0          | 0          |   0.0 |  0.00
Other   |            | 0.001319   |            |       |100.00

Nlocal:            110 ave         661 max           0 min
Histogram: 10 0 0 0 0 0 0 0 0 2
Nghost:        226.667 ave        1361 max           0 min
Histogram: 10 0 0 0 0 0 0 0 0 2
Neighs:              0 ave           0 max           0 min
Histogram: 12 0 0 0 0 0 0 0 0 0

Total # of neighbors = 0
Ave neighs/atom = 0
Neighbor list builds = 0
Dangerous builds = 0
WARNING: Dump 2 includes no atom IDs and is not sorted by ID. This may complicate post-processing tasks or visualization (src/dump.cpp:221)
Setting up Verlet run ...
  Unit style    : metal
  Current step  : 0
  Time step     : 0.001
Per MPI rank memory allocation (min/avg/max) = 11.83 | 12.18 | 13.98 Mbytes
   Step         PotEng         KinEng         TotEng           Lx             Ly             Lz      
         0  -9543.5331      51.148239     -9492.3849      200            200            48.497423    
       100  -9542.0899      53.876983     -9488.2129      200.02832      199.93697      48.521672    
       200  -9536.434       44.830731     -9491.6033      200.03857      199.81036      48.54592     
       300  -9526.8051      38.86528      -9487.9398      200.15353      199.74112      48.570169    
       400  -9528.6134      46.273868     -9482.3396      200.18945      199.64832      48.594418    
       500  -9532.7697      52.265446     -9480.5043      200.27032      199.65541      48.618667    
       600  -9529.567       46.199726     -9483.3673      200.2596       199.67817      48.642915    
       700  -9538.1637      56.331743     -9481.8319      200.23478      199.73532      48.667164    
       800  -9536.0612      51.25927      -9484.802       200.09727      199.77174      48.691413    
       900  -9536.428       50.282732     -9486.1453      200.0414       199.83371      48.715661    
      1000  -9537.7137      52.362224     -9485.3515      200.01333      199.89185      48.73991     
      1100  -9526.5925      42.427276     -9484.1652      199.96798      199.90138      48.764159    
      1200  -9536.6411      56.984865     -9479.6562      199.9837       199.92165      48.788408    
      1300  -9532.8469      50.223447     -9482.6235      200.0066       199.88959      48.812656    
      1400  -9532.4567      48.894411     -9483.5622      200.00237      199.82585      48.836905    
      1500  -9535.5855      54.077605     -9481.5079      200.05185      199.7694       48.861154    
      1600  -9532.7835      49.804483     -9482.979       200.08789      199.72916      48.885402    
      1700  -9531.8469      49.460559     -9482.3863      200.09081      199.73812      48.909651    
      1800  -9534.921       54.417762     -9480.5033      200.04438      199.76761      48.9339      
      1900  -9536.5056      53.210876     -9483.2948      200.0036       199.82428      48.958149    
      2000  -9530.2919      46.227241     -9484.0647      199.92394      199.84559      48.982397    
      2100  -9532.6143      51.231614     -9481.3827      199.91025      199.8904       49.006646    
      2200  -9529.8474      49.435641     -9480.4117      199.8795       199.89599      49.030895    
      2300  -9527.7538      49.362387     -9478.3914      199.87267      199.88537      49.055143    
      2400  -9528.6953      52.592596     -9476.1027      199.87172      199.8693       49.079392    
      2500  -9531.726       53.391338     -9478.3347      199.89436      199.84929      49.103641    
      2600  -9533.3392      52.9316       -9480.4076      199.90826      199.81512      49.127889    
      2700  -9531.3985      49.578638     -9481.8199      199.92887      199.78571      49.152138    
      2800  -9532.1505      49.922283     -9482.2282      199.94742      199.7723       49.176387    
      2900  -9529.0061      49.226412     -9479.7796      199.90854      199.76663      49.200636    
      3000  -9530.5116      53.352509     -9477.1591      199.88038      199.79775      49.224884    
      3100  -9529.4113      52.785604     -9476.6257      199.83314      199.83286      49.249133    
      3200  -9527.593       50.621196     -9476.9718      199.77773      199.85633      49.273382    
      3300  -9530.6918      52.951544     -9477.7402      199.76371      199.88986      49.29763     
      3400  -9528.6321      49.543962     -9479.0882      199.7368       199.88884      49.321879    
      3500  -9527.7981      51.483822     -9476.3143      199.73473      199.88704      49.346128    
      3600  -9529.1932      54.523871     -9474.6694      199.733        199.87092      49.370377    
      3700  -9525.632       49.97902      -9475.6529      199.73494      199.84724      49.394625    
      3800  -9527.8734      51.319385     -9476.554       199.73953      199.829        49.418874    
      3900  -9524.7647      49.051542     -9475.7132      199.73498      199.81895      49.443123    
      4000  -9523.1354      51.261002     -9471.8744      199.72339      199.82343      49.467371    
      4100  -9524.0534      52.740183     -9471.3132      199.68347      199.82663      49.49162     
      4200  -9526.4317      53.055727     -9473.376       199.65769      199.85525      49.515869    
      4300  -9527.3702      52.318641     -9475.0515      199.61102      199.87553      49.540118    
      4400  -9523.7477      49.45054      -9474.2971      199.58651      199.89886      49.564366    
      4500  -9522.3379      51.017533     -9471.3203      199.57323      199.89566      49.588615    
      4600  -9522.5047      52.651195     -9469.8535      199.5628       199.87395      49.612864    
      4700  -9521.671       52.010284     -9469.6607      199.57429      199.85616      49.637112    
      4800  -9520.7862      49.761986     -9471.0242      199.57123      199.82774      49.661361    
      4900  -9520.1386      47.784365     -9472.3543      199.5676       199.82452      49.68561     
      5000  -9521.225       50.383853     -9470.8411      199.55137      199.81662      49.709859    
      5100  -9518.6701      52.182926     -9466.4871      199.53314      199.83175      49.734107    
      5200  -9517.9342      51.88483      -9466.0494      199.49251      199.83411      49.758356    
      5300  -9514.9616      48.118771     -9466.8428      199.46537      199.85467      49.782605    
      5400  -9518.1786      52.222965     -9465.9556      199.42489      199.8649       49.806853    
      5500  -9516.3311      51.245189     -9465.0859      199.3948       199.87306      49.831102    
      5600  -9514.1064      51.358597     -9462.7478      199.37851      199.8852       49.855351    
      5700  -9514.2001      52.845604     -9461.3545      199.35474      199.87727      49.8796      
      5800  -9515.9655      52.04286      -9463.9226      199.35532      199.8683       49.903848    
      5900  -9515.6005      51.199137     -9464.4014      199.33449      199.84326      49.928097    
      6000  -9515.355       51.52014      -9463.8349      199.32264      199.83825      49.952346    
      6100  -9513.3629      51.582701     -9461.7802      199.30109      199.84296      49.976594    
      6200  -9511.2834      52.211371     -9459.072       199.26802      199.85395      50.000843    
      6300  -9511.2953      53.293816     -9458.0015      199.24707      199.86579      50.025092    
      6400  -9514.4904      53.278735     -9461.2116      199.21141      199.85199      50.049341    
      6500  -9510.9054      49.353474     -9461.5519      199.19724      199.85474      50.073589    
      6600  -9510.7075      51.092619     -9459.6149      199.16419      199.85065      50.097838    
      6700  -9507.8243      51.608668     -9456.2157      199.1397       199.86028      50.122087    
      6800  -9505.6423      51.290906     -9454.3514      199.11503      199.8624       50.146335    
      6900  -9507.6452      52.68401      -9454.9612      199.08949      199.85567      50.170584    
      7000  -9508.0675      51.308188     -9456.7593      199.06901      199.84881      50.194833    
      7100  -9505.8605      49.500691     -9456.3599      199.0399       199.83659      50.219082    
      7200  -9503.4731      48.780352     -9454.6928      199.02392      199.83921      50.24333     
      7300  -9503.3207      51.845725     -9451.475       198.99299      199.83203      50.267579    
      7400  -9502.6541      52.109821     -9450.5443      198.97627      199.84086      50.291828    
      7500  -9502.6006      51.372048     -9451.2285      198.9387       199.8291       50.316076    
      7600  -9501.3571      50.566145     -9450.791       198.9157       199.83207      50.340325    
      7700  -9499.3865      49.924667     -9449.4619      198.88533      199.81985      50.364574    
      7800  -9500.8294      52.548289     -9448.2811      198.85886      199.81571      50.388822    
      7900  -9498.8603      50.54425      -9448.316       198.83913      199.81376      50.413071    
      8000  -9500.488       51.200206     -9449.2877      198.80688      199.79639      50.43732     
      8100  -9497.8588      49.274665     -9448.5841      198.78796      199.80003      50.461569    
      8200  -9496.8405      51.749341     -9445.0911      198.75234      199.78125      50.485817    
      8300  -9495.2554      51.984181     -9443.2712      198.72909      199.77564      50.510066    
      8400  -9495.3428      52.9087       -9442.4341      198.70789      199.76713      50.534315    
      8500  -9494.5268      51.065344     -9443.4614      198.67806      199.75164      50.558563    
      8600  -9493.6641      49.858471     -9443.8056      198.65938      199.74968      50.582812    
      8700  -9491.7178      49.798009     -9441.9198      198.622        199.72916      50.607061    
      8800  -9491.8451      52.057363     -9439.7878      198.60275      199.72733      50.63131     
      8900  -9488.0091      50.84583      -9437.1633      198.57005      199.71136      50.655558    
      9000  -9487.8405      52.089728     -9435.7507      198.53955      199.70188      50.679807    
      9100  -9487.7081      49.529961     -9438.1781      198.51236      199.69948      50.704056    
      9200  -9489.0073      50.473433     -9438.5339      198.47255      199.68584      50.728304    
      9300  -9486.8483      49.457034     -9437.3912      198.44464      199.68363      50.752553    
      9400  -9485.9962      51.888724     -9434.1075      198.40438      199.66507      50.776802    
      9500  -9484.6771      52.817384     -9431.8597      198.38278      199.66011      50.801051    
      9600  -9483.0566      51.632202     -9431.4244      198.34861      199.63896      50.825299    
      9700  -9483.8507      51.894581     -9431.9562      198.31902      199.62438      50.849548    
      9800  -9483.0967      49.931057     -9433.1656      198.28532      199.61143      50.873797    
      9900  -9483.5247      49.544716     -9433.98        198.24992      199.59895      50.898045    
     10000  -9479.7123      48.520998     -9431.1913      198.21787      199.5912       50.922294    
     10100  -9478.253       51.192862     -9427.0601      198.181        199.5735       50.946543    
     10200  -9475.6232      50.931121     -9424.6921      198.14591      199.55859      50.970792    
     10300  -9474.095       51.346415     -9422.7486      198.10216      199.53981      50.99504     
     10400  -9473.903       51.682016     -9422.221       198.06018      199.53726      51.019289    
     10500  -9473.8402      50.20173      -9423.6384      198.01289      199.52825      51.043538    
     10600  -9472.7659      50.275603     -9422.4903      197.97598      199.51524      51.067786    
     10700  -9471.9353      51.846629     -9420.0887      197.9437       199.49495      51.092035    
     10800  -9469.8989      52.454755     -9417.4441      197.90548      199.4724       51.116284    
     10900  -9465.9803      51.682145     -9414.2982      197.86064      199.45328      51.140533    
     11000  -9465.6503      53.309828     -9412.3405      197.80705      199.43838      51.164781    
     11100  -9467.388       53.468023     -9413.9199      197.76306      199.43854      51.18903     
     11200  -9465.2792      50.549752     -9414.7295      197.71017      199.42351      51.213279    
     11300  -9464.6867      51.041335     -9413.6454      197.66397      199.41351      51.237527    
     11400  -9465.7232      53.144823     -9412.5784      197.61131      199.39249      51.261776    
     11500  -9461.107       48.165399     -9412.9416      197.55249      199.37325      51.286025    
     11600  -9462.4859      50.378406     -9412.1075      197.49907      199.3637       51.310274    
     11700  -9458.8837      49.797661     -9409.0861      197.44365      199.34595      51.334522    
     11800  -9457.045       51.620381     -9405.4247      197.39718      199.32719      51.358771    
     11900  -9458.5364      54.211971     -9404.3245      197.3505       199.30086      51.38302     
     12000  -9455.7865      50.655086     -9405.1314      197.30669      199.2746       51.407268    
     12100  -9456.3194      51.75962      -9404.5598      197.25168      199.24101      51.431517    
     12200  -9454.255       50.409389     -9403.8457      197.19752      199.21941      51.455766    
     12300  -9454.2659      52.792969     -9401.4729      197.13553      199.19613      51.480015    
     12400  -9449.7161      52.434441     -9397.2817      197.07592      199.17589      51.504263    
     12500  -9446.9219      50.262423     -9396.6595      197.01525      199.15424      51.528512    
     12600  -9448.1584      51.76662      -9396.3918      196.94946      199.12878      51.552761    
     12700  -9446.0964      50.133976     -9395.9624      196.88556      199.11158      51.577009    
     12800  -9444.6935      49.406468     -9395.2871      196.81101      199.08466      51.601258    
     12900  -9447.0491      53.110228     -9393.9388      196.74192      199.06588      51.625507    
     13000  -9444.6569      52.088438     -9392.5685      196.6745       199.0359       51.649755    
     13100  -9441.9838      51.357225     -9390.6266      196.61154      198.9975       51.674004    
     13200  -9440.3226      52.119489     -9388.2031      196.55441      198.95857      51.698253    
     13300  -9439.4771      52.421852     -9387.0553      196.48974      198.9152       51.722502    
     13400  -9438.5422      50.682065     -9387.8601      196.42572      198.88153      51.74675     
     13500  -9437.6991      50.552847     -9387.1462      196.34856      198.84074      51.770999    
     13600  -9435.0357      51.135508     -9383.9002      196.2743       198.81612      51.795248    
     13700  -9432.6547      52.923298     -9379.7314      196.18786      198.78622      51.819496    
     13800  -9432.0416      52.745324     -9379.2963      196.09676      198.7571       51.843745    
     13900  -9430.3705      50.417137     -9379.9533      196.01056      198.73049      51.867994    
     14000  -9429.7171      50.330654     -9379.3865      195.92044      198.68908      51.892243    
     14100  -9427.4514      50.27849      -9377.1729      195.84325      198.65754      51.916491    
     14200  -9426.9169      53.515994     -9373.4009      195.75635      198.60974      51.94074     
     14300  -9425.2144      53.981167     -9371.2333      195.67383      198.56427      51.964989    
     14400  -9423.9974      50.547018     -9373.4504      195.59429      198.51907      51.989237    
     14500  -9421.9167      49.624134     -9372.2926      195.50384      198.4591       52.013486    
     14600  -9419.5434      49.946047     -9369.5973      195.42487      198.42254      52.037735    
     14700  -9418.2502      52.217619     -9366.0326      195.31935      198.36961      52.061984    
     14800  -9416.6359      52.320985     -9364.3149      195.21886      198.34104      52.086232    
     14900  -9415.5348      50.585975     -9364.9488      195.10458      198.31328      52.110481    
     15000  -9416.743       51.853177     -9364.8898      194.98256      198.27811      52.13473     
     15100  -9415.2679      52.118655     -9363.1493      194.86922      198.25156      52.158978    
     15200  -9412.0371      51.666059     -9360.3711      194.75168      198.20325      52.183227    
     15300  -9409.8847      52.517024     -9357.3676      194.64748      198.16037      52.207476    
     15400  -9408.6367      52.863407     -9355.7733      194.54185      198.10531      52.231725    
     15500  -9408.9308      51.849634     -9357.0812      194.43783      198.04788      52.255973    
     15600  -9406.7602      49.63504      -9357.1251      194.32956      197.99238      52.280222    
     15700  -9405.5828      50.400901     -9355.1819      194.21664      197.93148      52.304471    
     15800  -9404.8194      53.373451     -9351.446       194.10585      197.88472      52.328719    
     15900  -9401.0045      52.533077     -9348.4714      193.9844       197.83385      52.352968    
     16000  -9397.9191      50.798714     -9347.1204      193.85303      197.78781      52.377217    
     16100  -9397.9915      52.101861     -9345.8896      193.71752      197.75042      52.401466    
     16200  -9396.0884      50.888399     -9345.2         193.57905      197.70256      52.425714    
     16300  -9395.1746      50.520939     -9344.6537      193.44518      197.65551      52.449963    
     16400  -9393.9988      50.014352     -9343.9845      193.32204      197.60701      52.474212    
     16500  -9391.5505      48.234501     -9343.316       193.1924       197.53916      52.49846     
     16600  -9391.6669      51.09782      -9340.5691      193.07477      197.48111      52.522709    
     16700  -9388.4376      52.042028     -9336.3956      192.94695      197.40322      52.546958    
     16800  -9386.071       51.584055     -9334.487       192.82893      197.34256      52.571207    
     16900  -9383.681       49.765325     -9333.9157      192.70149      197.2738       52.595455    
     17000  -9384.6788      49.815927     -9334.8629      192.57207      197.21291      52.619704    
     17100  -9383.1259      49.2072       -9333.9187      192.44243      197.16008      52.643953    
     17200  -9380.0105      49.094026     -9330.9164      192.29293      197.08968      52.668201    
     17300  -9379.7396      51.21749      -9328.5221      192.15705      197.04943      52.69245     
     17400  -9377.0216      50.744788     -9326.2768      192.00406      196.98705      52.716699    
     17500  -9375.7366      51.866813     -9323.8697      191.86487      196.93958      52.740948    
     17600  -9372.332       52.513899     -9319.8181      191.72807      196.88275      52.765196    
     17700  -9369.871       52.369311     -9317.5017      191.59026      196.80514      52.789445    
     17800  -9369.7376      51.557324     -9318.1803      191.46952      196.74029      52.813694    
     17900  -9367.6705      50.184995     -9317.4855      191.33797      196.65331      52.837942    
     18000  -9368.6538      52.318204     -9316.3356      191.21568      196.5889       52.862191    
     18100  -9364.6185      49.820817     -9314.7976      191.08396      196.52147      52.88644     
     18200  -9362.5475      51.78418      -9310.7634      190.94727      196.45009      52.910688    
     18300  -9360.1322      52.455344     -9307.6769      190.81855      196.39199      52.934937    
     18400  -9359.0707      51.605203     -9307.4655      190.67652      196.31482      52.959186    
     18500  -9358.8012      51.911595     -9306.8896      190.5418       196.25712      52.983435    
     18600  -9355.6369      50.239743     -9305.3972      190.39998      196.19869      53.007683    
     18700  -9353.9677      50.590521     -9303.3772      190.2548       196.13826      53.031932    
     18800  -9351.5418      51.787985     -9299.7538      190.11419      196.08455      53.056181    
     18900  -9347.9355      52.197207     -9295.7383      189.98036      196.02049      53.080429    
     19000  -9346.2896      50.957459     -9295.3321      189.85301      195.94955      53.104678    
     19100  -9347.0197      51.236563     -9295.7831      189.73268      195.87815      53.128927    
     19200  -9346.2289      51.777958     -9294.4509      189.60418      195.80181      53.153176    
     19300  -9343.1146      50.46814      -9292.6464      189.48144      195.74049      53.177424    
     19400  -9342.0648      50.990758     -9291.074       189.34697      195.66987      53.201673    
     19500  -9340.4534      50.158207     -9290.2952      189.2204       195.61858      53.225922    
     19600  -9338.5719      49.764134     -9288.8078      189.08659      195.55621      53.25017     
     19700  -9336.2406      51.247502     -9284.9931      188.95607      195.4972       53.274419    
     19800  -9332.0934      51.082805     -9281.0106      188.82965      195.44344      53.298668    
     19900  -9331.546       51.854873     -9279.6911      188.69438      195.37958      53.322917    
     20000  -9330.1914      50.632049     -9279.5593      188.56961      195.33643      53.347165    
     20100  -9328.3568      50.291305     -9278.0655      188.43784      195.27922      53.371414    
     20200  -9327.8038      51.870594     -9275.9332      188.31549      195.22152      53.395663    
     20300  -9323.2482      50.145207     -9273.103       188.19882      195.15708      53.419911    
     20400  -9322.442       51.611756     -9270.8302      188.08494      195.08903      53.44416     
     20500  -9321.7481      52.400679     -9269.3475      187.97774      195.02989      53.468409    
     20600  -9318.1698      49.928697     -9268.2411      187.86345      194.96483      53.492658    
     20700  -9318.8358      51.20455      -9267.6312      187.75216      194.91263      53.516906    
     20800  -9315.5306      48.115767     -9267.4148      187.63584      194.85956      53.541155    
     20900  -9315.127       52.031652     -9263.0953      187.51753      194.80404      53.565404    
     21000  -9310.4461      51.399516     -9259.0466      187.40416      194.75587      53.589652    
     21100  -9309.5922      52.551979     -9257.0402      187.28894      194.69774      53.613901    
     21200  -9306.1474      50.343121     -9255.8042      187.18277      194.65198      53.63815     
     21300  -9307.7442      51.562284     -9256.1819      187.07498      194.60084      53.662399    
     21400  -9303.4381      48.08467      -9255.3534      186.97087      194.55015      53.686647    
     21500  -9301.8792      50.261714     -9251.6175      186.86664      194.49661      53.710896    
     21600  -9299.1934      50.199125     -9248.9943      186.76415      194.44019      53.735145    
     21700  -9297.2678      50.702235     -9246.5656      186.66454      194.38585      53.759393    
     21800  -9294.2344      50.70846      -9243.5259      186.56905      194.33114      53.783642    
     21900  -9293.2673      52.766595     -9240.5007      186.4748       194.27746      53.807891    
     22000  -9292.037       53.095753     -9238.9412      186.38256      194.22588      53.83214     
     22100  -9289.8095      50.151334     -9239.6582      186.29106      194.17214      53.856388    
     22200  -9289.8091      51.417777     -9238.3913      186.20164      194.12576      53.880637    
     22300  -9285.6365      50.431634     -9235.2049      186.10632      194.07576      53.904886    
     22400  -9282.5103      51.850163     -9230.6601      186.00795      194.03141      53.929134    
     22500  -9280.9914      52.318473     -9228.673       185.91508      193.99035      53.953383    
     22600  -9279.1944      51.398678     -9227.7957      185.81687      193.93913      53.977632    
     22700  -9276.4636      50.03282      -9226.4308      185.7297       193.901        54.001881    
     22800  -9275.5849      51.461307     -9224.1236      185.64156      193.85325      54.026129    
     22900  -9272.9471      53.329752     -9219.6174      185.55949      193.80523      54.050378    
     23000  -9270.2532      53.169607     -9217.0836      185.48147      193.75736      54.074627    
     23100  -9268.7838      51.265536     -9217.5183      185.40065      193.70795      54.098875    
     23200  -9267.3598      50.856225     -9216.5036      185.32123      193.6644       54.123124    
     23300  -9265.6772      51.307508     -9214.3697      185.23572      193.61884      54.147373    
     23400  -9261.9294      50.915292     -9211.0141      185.1519       193.57504      54.171621    
     23500  -9258.6319      52.623406     -9206.0085      185.07279      193.53618      54.19587     
     23600  -9256.022       52.554515     -9203.4675      184.99083      193.48988      54.220119    
     23700  -9255.1973      51.801188     -9203.3961      184.91495      193.45376      54.244368    
     23800  -9254.5957      52.275309     -9202.3204      184.83501      193.4111       54.268616    
     23900  -9251.9808      50.268898     -9201.7119      184.7573       193.3678       54.292865    
     24000  -9251.1781      50.602996     -9200.5751      184.68366      193.3298       54.317114    
     24100  -9249.494       51.462875     -9198.0311      184.60776      193.28526      54.341362    
     24200  -9245.9571      52.829518     -9193.1276      184.53628      193.24229      54.365611    
     24300  -9242.9452      52.784186     -9190.161       184.46572      193.19703      54.38986     
     24400  -9240.292       51.084492     -9189.2075      184.39821      193.1531       54.414109    
     24500  -9238.884       50.63375      -9188.2503      184.32887      193.10789      54.438357    
     24600  -9236.4888      50.306417     -9186.1823      184.2624       193.06952      54.462606    
     24700  -9233.9535      50.259741     -9183.6938      184.19114      193.03507      54.486855    
     24800  -9230.111       51.745154     -9178.3658      184.11645      193.0019       54.511103    
     24900  -9228.0767      52.92656      -9175.1502      184.03891      192.96615      54.535352    
     25000  -9226.998       51.265397     -9175.7326      183.96494      192.93216      54.559601    
     25100  -9225.9358      50.43192      -9175.5039      183.8904       192.89339      54.58385     
     25200  -9223.7865      50.210116     -9173.5764      183.82193      192.85888      54.608098    
     25300  -9220.7704      50.716554     -9170.0538      183.75752      192.81985      54.632347    
     25400  -9217.59        51.9584       -9165.6316      183.69733      192.77486      54.656596    
     25500  -9216.9225      53.068784     -9163.8537      183.6463       192.73496      54.680844    
     25600  -9214.1202      51.032683     -9163.0875      183.58735      192.68573      54.705093    
     25700  -9213.2813      51.87799      -9161.4033      183.52766      192.64461      54.729342    
     25800  -9209.9214      50.783991     -9159.1374      183.46202      192.60365      54.753591    
     25900  -9208.3375      52.234397     -9156.1031      183.39688      192.56733      54.777839    
     26000  -9205.0465      52.328351     -9152.7181      183.33029      192.53419      54.802088    
     26100  -9202.0083      52.447881     -9149.5604      183.25916      192.49871      54.826337    
     26200  -9200.6504      52.240259     -9148.4101      183.19514      192.47438      54.850585    
     26300  -9199.1106      50.208945     -9148.9017      183.12773      192.43835      54.874834    
     26400  -9194.9109      47.947186     -9146.9637      183.06902      192.4053       54.899083    
     26500  -9194.7472      51.220782     -9143.5264      183.01399      192.36971      54.923332    
     26600  -9191.2985      52.03204      -9139.2664      182.9557       192.32443      54.94758     
     26700  -9187.1173      51.932018     -9135.1853      182.90261      192.28741      54.971829    
     26800  -9186.1         54.916419     -9131.1836      182.84265      192.24324      54.996078    
     26900  -9183.5243      52.401076     -9131.1232      182.78732      192.20233      55.020326    
     27000  -9182.554       51.200621     -9131.3534      182.73285      192.16254      55.044575    
     27100  -9179.6384      49.694802     -9129.9436      182.67792      192.119        55.068824    
     27200  -9178.7965      50.535992     -9128.2605      182.62595      192.0845       55.093073    
     27300  -9175.9524      51.151148     -9124.8012      182.56787      192.04575      55.117321    
     27400  -9173.2207      53.098401     -9120.1223      182.50696      192.01281      55.14157     
     27500  -9170.2964      52.062214     -9118.2342      182.44733      191.98667      55.165819    
     27600  -9169.6448      51.620547     -9118.0243      182.38332      191.95032      55.190067    
     27700  -9167.5309      51.061483     -9116.4695      182.32724      191.91835      55.214316    
     27800  -9165.0813      51.322517     -9113.7588      182.27091      191.88108      55.238565    
     27900  -9161.1222      50.820836     -9110.3014      182.21266      191.8399       55.262814    
     28000  -9158.2995      51.630126     -9106.6693      182.16442      191.80835      55.287062    
     28100  -9155.0035      51.392369     -9103.6111      182.10807      191.7614       55.311311    
     28200  -9153.6742      51.157773     -9102.5165      182.06229      191.72423      55.33556     
     28300  -9152.9218      50.239656     -9102.6821      182.01337      191.6836       55.359808    
     28400  -9152.4136      51.403973     -9101.0096      181.95932      191.64138      55.384057    
     28500  -9147.2301      50.007648     -9097.2225      181.91009      191.612        55.408306    
     28600  -9144.1121      51.650872     -9092.4612      181.85041      191.57392      55.432554    
     28700  -9142.417       51.962659     -9090.4543      181.79668      191.54399      55.456803    
     28800  -9139.4884      50.553488     -9088.9349      181.7399       191.50952      55.481052    
     28900  -9138.1805      50.692441     -9087.488       181.68263      191.47189      55.505301    
     29000  -9137.0916      49.733834     -9087.3578      181.63043      191.4409       55.529549    
     29100  -9134.6627      48.75435      -9085.9083      181.57301      191.40198      55.553798    
     29200  -9131.9951      51.161398     -9080.8337      181.52135      191.36732      55.578047    
     29300  -9129.6673      52.550383     -9077.1169      181.47129      191.33226      55.602295    
     29400  -9123.9466      49.806305     -9074.1403      181.41872      191.29079      55.626544    
     29500  -9123.6509      51.98276      -9071.6681      181.37117      191.25576      55.650793    
     29600  -9121.2202      50.373787     -9070.8464      181.32093      191.21517      55.675042    
     29700  -9119.5212      49.523717     -9069.9975      181.27023      191.17824      55.69929     
     29800  -9116.5414      50.541532     -9065.9999      181.21951      191.14474      55.723539    
     29900  -9112.9958      51.812953     -9061.1829      181.16441      191.10525      55.747788    
     30000  -9111.9195      52.938027     -9058.9815      181.11346      191.06912      55.772036    
     30100  -9108.0984      50.030035     -9058.0684      181.05863      191.03292      55.796285    
     30200  -9107.0177      50.012362     -9057.0053      181.00261      190.99867      55.820534    
     30300  -9102.697       48.623406     -9054.0736      180.95327      190.96731      55.844783    
     30400  -9100.3853      52.398332     -9047.987       180.90127      190.9245       55.869031    
     30500  -9096.2713      50.591597     -9045.6797      180.85822      190.88923      55.89328     
     30600  -9094.044       48.793712     -9045.2502      180.80621      190.84626      55.917529    
     30700  -9094.9943      50.870014     -9044.1243      180.75236      190.80943      55.941777    
     30800  -9093.5784      51.741472     -9041.8369      180.70057      190.77883      55.966026    
     30900  -9089.5388      52.576362     -9036.9624      180.64032      190.74133      55.990275    
     31000  -9085.1458      52.591351     -9032.5544      180.5956       190.71282      56.014524    
     31100  -9082.706       51.086058     -9031.62        180.54819      190.67406      56.038772    
     31200  -9082.9289      51.993744     -9030.9351      180.50442      190.6299       56.063021    
     31300  -9078.8393      50.036877     -9028.8024      180.46292      190.59089      56.08727     
     31400  -9078.108       52.32         -9025.788       180.40909      190.54416      56.111518    
     31500  -9072.6106      50.632304     -9021.9783      180.35994      190.5097       56.135767    
     31600  -9069.0845      52.901965     -9016.1825      180.30742      190.47512      56.160016    
     31700  -9067.588       53.167699     -9014.4203      180.24986      190.43488      56.184265    
     31800  -9065.9728      52.088432     -9013.8843      180.20682      190.40289      56.208513    
     31900  -9064.9134      52.355606     -9012.5578      180.15064      190.35257      56.232762    
     32000  -9062.4488      50.817941     -9011.6309      180.11214      190.31631      56.257011    
     32100  -9060.2869      50.620016     -9009.6669      180.06559      190.27615      56.281259    
     32200  -9056.2514      51.489833     -9004.7616      180.01193      190.2334       56.305508    
     32300  -9052.1276      52.153046     -8999.9746      179.9708       190.20638      56.329757    
     32400  -9049.8479      51.706079     -8998.1418      179.90858      190.16397      56.354006    
     32500  -9048.6007      51.117805     -8997.4829      179.85842      190.13073      56.378254    
     32600  -9046.2347      49.869862     -8996.3648      179.80694      190.08972      56.402503    
     32700  -9044.6247      50.911894     -8993.7128      179.75883      190.04341      56.426752    
     32800  -9040.8295      50.589909     -8990.2396      179.72208      190.00306      56.451       
     32900  -9037.9741      50.830662     -8987.1434      179.6712       189.95281      56.475249    
     33000  -9035.8969      51.364088     -8984.5328      179.62602      189.91434      56.499498    
     33100  -9033.9199      51.859772     -8982.0602      179.57456      189.87958      56.523747    
     33200  -9030.16        50.267212     -8979.8928      179.51131      189.84505      56.547995    
     33300  -9028.3922      49.818582     -8978.5736      179.45659      189.82226      56.572244    
     33400  -9025.4761      48.57247      -8976.9036      179.39641      189.79238      56.596493    
     33500  -9023.2189      50.923052     -8972.2958      179.34399      189.75825      56.620741    
     33600  -9018.3483      50.62277      -8967.7255      179.29984      189.7226       56.64499     
     33700  -9016.7486      51.531387     -8965.2172      179.24439      189.67372      56.669239    
     33800  -9016.7672      52.199601     -8964.5676      179.19814      189.63139      56.693487    
     33900  -9013.3113      49.803324     -8963.508       179.14772      189.58823      56.717736    
     34000  -9009.4105      49.056854     -8960.3537      179.09172      189.54316      56.741985    
     34100  -9007.0246      50.432286     -8956.5923      179.04689      189.51189      56.766234    
     34200  -9005.6317      52.778603     -8952.8531      178.98763      189.47005      56.790482    
     34300  -9000.87        51.291914     -8949.5781      178.94154      189.43601      56.814731    
     34400  -8998.9719      52.520972     -8946.4509      178.89275      189.39783      56.83898     
     34500  -8995.6604      50.912539     -8944.7479      178.83732      189.35315      56.863228    
     34600  -8995.0985      50.696203     -8944.4023      178.79432      189.321        56.887477    
     34700  -8992.0407      49.804338     -8942.2363      178.73214      189.27491      56.911726    
     34800  -8987.7584      49.802871     -8937.9556      178.68305      189.24353      56.935975    
     34900  -8987.1961      54.124374     -8933.0717      178.62647      189.20819      56.960223    
     35000  -8982.121       51.132011     -8930.989       178.56277      189.16865      56.984472    
     35100  -8979.9799      50.560994     -8929.4189      178.51338      189.13772      57.008721    
     35200  -8977.9733      50.538038     -8927.4352      178.45101      189.09581      57.032969    
     35300  -8974.531       50.12893      -8924.4021      178.39802      189.06168      57.057218    
     35400  -8971.7233      52.087461     -8919.6359      178.34677      189.02653      57.081467    
     35500  -8969.179       53.191209     -8915.9878      178.29151      188.98457      57.105716    
     35600  -8969.487       53.564713     -8915.9223      178.24892      188.947        57.129964    
     35700  -8966.3162      51.581691     -8914.7345      178.19647      188.89921      57.154213    
     35800  -8961.6124      49.646584     -8911.9658      178.14738      188.8542       57.178462    
     35900  -8959.6979      51.571579     -8908.1263      178.09621      188.80937      57.20271     
     36000  -8955.3598      51.389614     -8903.9701      178.04102      188.76726      57.226959    
     36100  -8953.3566      52.876892     -8900.4797      177.98768      188.72955      57.251208    
     36200  -8952.4402      52.155623     -8900.2845      177.93163      188.69567      57.275457    
     36300  -8949.8131      50.282859     -8899.5302      177.87021      188.66047      57.299705    
     36400  -8945.637       49.166797     -8896.4702      177.8154       188.63224      57.323954    
     36500  -8943.8854      52.255899     -8891.6295      177.74917      188.59679      57.348203    
     36600  -8940.1052      51.93325      -8888.1719      177.6902       188.56468      57.372451    
     36700  -8936.6054      50.144348     -8886.4611      177.63227      188.53227      57.3967      
     36800  -8935.913       51.350385     -8884.5626      177.57082      188.49307      57.420949    
     36900  -8932.6973      50.417804     -8882.2795      177.52014      188.45793      57.445198    
     37000  -8930.7401      51.538324     -8879.2018      177.46287      188.41546      57.469446    
     37100  -8925.8307      51.783884     -8874.0468      177.40612      188.37438      57.493695    
     37200  -8923.616       53.251609     -8870.3644      177.35303      188.33434      57.517944    
     37300  -8921.289       51.264064     -8870.0249      177.29561      188.29061      57.542192    
     37400  -8918.7565      50.069902     -8868.6866      177.24157      188.25168      57.566441    
     37500  -8917.7768      51.644682     -8866.1322      177.18493      188.21552      57.59069     
     37600  -8914.308       51.091364     -8863.2166      177.1257       188.18217      57.614939    
     37700  -8910.2576      52.268383     -8857.9893      177.0663       188.15236      57.639187    
     37800  -8907.034       52.939646     -8854.0944      177.0028       188.12243      57.663436    
     37900  -8903.7371      50.242787     -8853.4943      176.93436      188.08872      57.687685    
     38000  -8903.0048      50.72083      -8852.284       176.8734       188.0607       57.711933    
     38100  -8901.733       51.952781     -8849.7802      176.80501      188.02643      57.736182    
     38200  -8898.555       51.602407     -8846.9526      176.7391       187.99368      57.760431    
     38300  -8894.658       50.805281     -8843.8527      176.67707      187.96212      57.78468     
     38400  -8891.1494      51.380003     -8839.7694      176.60789      187.92221      57.808928    
     38500  -8889.1205      53.459111     -8835.6614      176.54924      187.8896       57.833177    
     38600  -8885.5         52.155906     -8833.344       176.48514      187.85157      57.857426    
     38700  -8884.0724      50.357232     -8833.7152      176.42245      187.81418      57.881674    
     38800  -8882.3806      50.548152     -8831.8324      176.3677       187.78317      57.905923    
     38900  -8877.6591      49.839045     -8827.8201      176.30071      187.74527      57.930172    
     39000  -8875.3759      51.884885     -8823.491       176.24397      187.71516      57.95442     
     39100  -8871.8479      51.235834     -8820.612       176.18504      187.68174      57.978669    
     39200  -8869.8889      51.375604     -8818.5133      176.1185       187.6408       58.002918    
     39300  -8867.5791      51.412763     -8816.1664      176.06131      187.6102       58.027167    
     39400  -8865.0227      51.413405     -8813.6093      175.99171      187.56935      58.051415    
     39500  -8861.4632      50.334583     -8811.1286      175.9282       187.53601      58.075664    
     39600  -8860.3488      51.241774     -8809.107       175.86513      187.50425      58.099913    
     39700  -8856.4762      50.066876     -8806.4094      175.79097      187.46004      58.124161    
     39800  -8853.1002      50.794935     -8802.3053      175.73723      187.43164      58.14841     
     39900  -8849.6506      51.708268     -8797.9423      175.66782      187.38883      58.172659    
     40000  -8846.0403      51.684276     -8794.356       175.60455      187.35439      58.196908    
     40100  -8845.3438      51.248856     -8794.095       175.54632      187.3264       58.221156    
     40200  -8843.1706      49.750432     -8793.4202      175.47215      187.28444      58.245405    
     40300  -8840.4267      50.44984      -8789.9769      175.41523      187.25767      58.269654    
     40400  -8836.9406      51.452097     -8785.4885      175.35147      187.22133      58.293902    
     40500  -8833.6282      52.103446     -8781.5247      175.28789      187.18104      58.318151    
     40600  -8830.9954      51.912334     -8779.0831      175.23415      187.14954      58.3424      
     40700  -8828.846       49.359382     -8779.4867      175.1641       187.10425      58.366649    
     40800  -8828.1906      50.722202     -8777.4684      175.09902      187.06753      58.390897    
     40900  -8821.3209      48.581223     -8772.7397      175.03502      187.0314       58.415146    
     41000  -8820.288       52.162584     -8768.1254      174.9641       186.98627      58.439395    
     41100  -8818.1402      52.826309     -8765.3139      174.90762      186.95464      58.463643    
     41200  -8814.7158      51.281397     -8763.4344      174.84191      186.914        58.487892    
     41300  -8813.1997      50.340563     -8762.8592      174.77661      186.87552      58.512141    
     41400  -8810.9811      49.302549     -8761.6786      174.71876      186.84796      58.53639     
     41500  -8807.824       51.490353     -8756.3336      174.64678      186.80434      58.560638    
     41600  -8804.0095      52.354359     -8751.6551      174.58805      186.77204      58.584887    
     41700  -8801.2036      52.451268     -8748.7524      174.52583      186.73437      58.609136    
     41800  -8797.3328      50.768479     -8746.5643      174.46001      186.69038      58.633384    
     41900  -8795.5733      50.496487     -8745.0769      174.40446      186.66025      58.657633    
     42000  -8792.9835      49.752624     -8743.2309      174.33592      186.61704      58.681882    
     42100  -8789.4951      50.791633     -8738.7035      174.26953      186.58079      58.706131    
     42200  -8786.2671      52.715007     -8733.5521      174.20795      186.54863      58.730379    
     42300  -8783.2438      52.35005      -8730.8937      174.13719      186.50238      58.754628    
     42400  -8780.838       51.12755      -8729.7105      174.07846      186.46759      58.778877    
     42500  -8779.4416      50.622403     -8728.8192      174.01742      186.42779      58.803125    
     42600  -8775.7447      49.676908     -8726.0678      173.9529       186.38405      58.827374    
     42700  -8772.0204      49.605079     -8722.4153      173.89743      186.35237      58.851623    
     42800  -8770.5298      52.145575     -8718.3842      173.83214      186.30832      58.875872    
     42900  -8764.7517      50.197832     -8714.5539      173.77038      186.26574      58.90012     
     43000  -8763.2937      51.758543     -8711.5352      173.71463      186.22881      58.924369    
     43100  -8759.9044      49.018214     -8710.8861      173.64921      186.18115      58.948618    
     43200  -8760.1333      50.404977     -8709.7283      173.58816      186.14332      58.972866    
     43300  -8756.6772      50.773326     -8705.9039      173.52753      186.10763      58.997115    
     43400  -8752.0251      50.937115     -8701.088       173.45888      186.06142      59.021364    
     43500  -8748.8133      50.800812     -8698.0125      173.40158      186.02958      59.045613    
     43600  -8748.1215      52.394792     -8695.7267      173.33579      185.98649      59.069861    
     43700  -8744.4143      50.64319      -8693.7711      173.27204      185.94448      59.09411     
     43800  -8741.74        49.455242     -8692.2847      173.21777      185.91272      59.118359    
     43900  -8739.0438      49.440811     -8689.603       173.15165      185.86385      59.142607    
     44000  -8735.1063      51.222107     -8683.8842      173.09357      185.82627      59.166856    
     44100  -8731.9602      51.961312     -8679.9989      173.03591      185.78946      59.191105    
     44200  -8730.333       52.442646     -8677.8903      172.97095      185.7391       59.215353    
     44300  -8726.8094      49.826545     -8676.9828      172.91922      185.70429      59.239602    
     44400  -8726.7632      50.831247     -8675.932       172.85814      185.65636      59.263851    
     44500  -8722.1443      50.279074     -8671.8653      172.79677      185.6117       59.2881      
     44600  -8718.6049      52.814275     -8665.7906      172.74398      185.58027      59.312348    
     44700  -8714.5481      52.129448     -8662.4186      172.67565      185.52828      59.336597    
     44800  -8713.225       52.403566     -8660.8214      172.61612      185.49109      59.360846    
     44900  -8710.0686      49.931455     -8660.1371      172.55525      185.4554       59.385094    
     45000  -8708.5865      50.816214     -8657.7703      172.48749      185.41046      59.409343    
     45100  -8703.946       50.761295     -8653.1847      172.43037      185.37807      59.433592    
     45200  -8700.7706      51.995749     -8648.7748      172.36628      185.33201      59.457841    
     45300  -8697.5169      51.233141     -8646.2838      172.30545      185.28871      59.482089    
     45400  -8695.3012      50.857372     -8644.4438      172.25034      185.25203      59.506338    
     45500  -8692.4921      49.856145     -8642.636       172.18633      185.2006       59.530587    
     45600  -8691.4519      51.276625     -8640.1753      172.1307       185.16201      59.554835    
     45700  -8687.8653      52.112334     -8635.753       172.07153      185.11951      59.579084    
     45800  -8682.8305      52.128606     -8630.7019      172.01014      185.07368      59.603333    
     45900  -8681.044       52.526573     -8628.5174      171.95683      185.04059      59.627582    
     46000  -8679.1558      51.24418      -8627.9116      171.89603      184.99422      59.65183     
     46100  -8675.9828      50.53705      -8625.4458      171.83641      184.95187      59.676079    
     46200  -8673.6565      51.447691     -8622.2088      171.78143      184.9163       59.700328    
     46300  -8669.9118      51.516466     -8618.3953      171.71767      184.86674      59.724576    
     46400  -8666.1915      52.533622     -8613.6579      171.66167      184.82964      59.748825    
     46500  -8661.4003      52.831819     -8608.5685      171.60228      184.78741      59.773074    
     46600  -8660.2671      53.36576      -8606.9013      171.54005      184.74256      59.797323    
     46700  -8658.0953      51.07422      -8607.0211      171.48538      184.7059       59.821571    
     46800  -8656.2236      51.324087     -8604.8995      171.42453      184.66054      59.84582     
     46900  -8652.8708      51.071649     -8601.7991      171.36687      184.6193       59.870069    
     47000  -8647.2048      49.637134     -8597.5676      171.31104      184.57965      59.894317    
     47100  -8645.4245      52.412163     -8593.0123      171.25213      184.53429      59.918566    
     47200  -8642.3137      52.259728     -8590.0539      171.19831      184.49345      59.942815    
     47300  -8641.6662      51.243807     -8590.4224      171.14391      184.4485       59.967064    
     47400  -8637.9374      49.475893     -8588.4615      171.08966      184.40569      59.991312    
     47500  -8634.153       49.674163     -8584.4788      171.03582      184.36649      60.015561    
     47600  -8630.6938      51.070759     -8579.6231      170.977        184.32231      60.03981     
     47700  -8627.9052      51.733419     -8576.1718      170.91752      184.28186      60.064058    
     47800  -8627.8568      51.250301     -8576.6065      170.85916      184.24354      60.088307    
     47900  -8623.7765      48.772401     -8575.0041      170.80088      184.20167      60.112556    
     48000  -8620.0493      49.608165     -8570.4411      170.74272      184.16018      60.136805    
     48100  -8617.1827      51.56599      -8565.6167      170.68663      184.11931      60.161053    
     48200  -8614.1124      51.94243      -8562.17        170.63177      184.07907      60.185302    
     48300  -8611.7716      51.045841     -8560.7258      170.57611      184.03551      60.209551    
     48400  -8609.1224      48.723569     -8560.3988      170.52281      183.99475      60.233799    
     48500  -8607.0325      49.487708     -8557.5448      170.47045      183.95243      60.258048    
     48600  -8603.3304      49.742256     -8553.5881      170.41673      183.90633      60.282297    
     48700  -8599.4718      50.182796     -8549.289       170.36576      183.86394      60.306546    
     48800  -8597.3232      52.131945     -8545.1913      170.31344      183.81996      60.330794    
     48900  -8593.1651      51.335878     -8541.8292      170.2624       183.77645      60.355043    
     49000  -8590.5733      49.360641     -8541.2127      170.21225      183.73635      60.379292    
     49100  -8590.175       50.375455     -8539.7995      170.1568       183.69142      60.40354     
     49200  -8585.8096      50.227914     -8535.5817      170.10225      183.6523       60.427789    
     49300  -8582.7693      52.033473     -8530.7358      170.04898      183.61445      60.452038    
     49400  -8578.1856      50.742961     -8527.4427      169.99053      183.56892      60.476286    
     49500  -8574.9939      49.929955     -8525.0639      169.93795      183.53628      60.500535    
     49600  -8572.4686      49.680162     -8522.7885      169.88072      183.49868      60.524784    
     49700  -8570.9049      50.625525     -8520.2793      169.82593      183.45934      60.549033    
     49800  -8568.9011      51.257423     -8517.6437      169.7759       183.42332      60.573281    
     49900  -8566.5865      51.022914     -8515.5636      169.72282      183.37538      60.59753     
     50000  -8562.8601      50.283707     -8512.5764      169.67596      183.3328       60.621779    
     50100  -8559.2019      51.281869     -8507.92        169.62965      183.28735      60.646027    
     50200  -8555.0904      51.857705     -8503.2327      169.58093      183.23587      60.670276    
     50300  -8553.7484      52.931082     -8500.8173      169.53705      183.1954       60.694525    
     50400  -8549.58        48.434804     -8501.1452      169.48659      183.14787      60.718774    
     50500  -8547.7501      49.394984     -8498.3551      169.43635      183.10548      60.743022    
     50600  -8544.7813      50.632113     -8494.1492      169.38715      183.06951      60.767271    
     50700  -8541.3607      51.803396     -8489.5573      169.33262      183.02565      60.79152     
     50800  -8537.3009      51.57673      -8485.7242      169.28305      182.99052      60.815768    
     50900  -8535.6157      50.765772     -8484.8499      169.23253      182.95189      60.840017    
     51000  -8533.806       49.774837     -8484.0312      169.17714      182.90759      60.864266    
     51100  -8530.8887      50.452667     -8480.4361      169.13243      182.87749      60.888515    
     51200  -8527.5979      51.833788     -8475.7641      169.08266      182.83222      60.912763    
     51300  -8523.0614      51.593302     -8471.4681      169.03591      182.78694      60.937012    
     51400  -8521.7777      52.865466     -8468.9122      168.99487      182.74795      60.961261    
     51500  -8519.5214      50.281493     -8469.2399      168.94598      182.69501      60.985509    
     51600  -8516.5236      50.19925      -8466.3243      168.90449      182.65105      61.009758    
     51700  -8511.9955      50.319731     -8461.6758      168.85847      182.60228      61.034007    
     51800  -8508.8502      51.867795     -8456.9824      168.81289      182.55433      61.058256    
     51900  -8506.7983      52.637731     -8454.1606      168.77169      182.51468      61.082504    
     52000  -8504.2224      51.29969      -8452.9227      168.72367      182.46546      61.106753    
     52100  -8501.8035      49.149181     -8452.6543      168.67981      182.42632      61.131002    
     52200  -8500.694       47.986766     -8452.7073      168.63721      182.39237      61.15525     
     52300  -8497.4829      49.777217     -8447.7057      168.58661      182.34873      61.179499    
     52400  -8493.7238      51.668099     -8442.0557      168.54369      182.31597      61.203748    
     52500  -8487.7315      50.368615     -8437.3628      168.49698      182.27946      61.227997    
     52600  -8486.2794      52.468048     -8433.8113      168.44682      182.23604      61.252245    
     52700  -8483.8553      51.815562     -8432.0397      168.40275      182.20244      61.276494    
     52800  -8481.8665      50.558546     -8431.3079      168.35111      182.15673      61.300743    
     52900  -8478.7465      50.307476     -8428.439       168.30747      182.11956      61.324991    
     53000  -8475.1567      50.882333     -8424.2743      168.2648       182.07684      61.34924     
     53100  -8471.7973      51.362529     -8420.4347      168.2217       182.0267       61.373489    
     53200  -8468.3135      51.48315      -8416.8304      168.1864       181.98401      61.397738    
     53300  -8464.4198      50.834359     -8413.5854      168.14865      181.93658      61.421986    
     53400  -8461.9341      51.566744     -8410.3674      168.10945      181.88832      61.446235    
     53500  -8460.6659      53.053927     -8407.612       168.07281      181.84829      61.470484    
     53600  -8457.177       51.170094     -8406.0069      168.02864      181.80511      61.494732    
     53700  -8453.3413      49.659716     -8403.6816      167.98771      181.7719       61.518981    
     53800  -8451.5639      51.523298     -8400.0406      167.94334      181.73937      61.54323     
     53900  -8447.3999      52.81507      -8394.5848      167.89498      181.70342      61.567478    
     54000  -8441.0996      50.461446     -8390.6381      167.85409      181.67164      61.591727    
     54100  -8441.3916      51.055695     -8390.3359      167.80857      181.6278       61.615976    
     54200  -8439.0301      50.542774     -8388.4874      167.76778      181.58755      61.640225    
     54300  -8436.2328      51.100469     -8385.1324      167.72591      181.54722      61.664473    
     54400  -8431.059       49.84452      -8381.2145      167.68249      181.50441      61.688722    
     54500  -8427.9707      51.199081     -8376.7716      167.64517      181.4672       61.712971    
     54600  -8424.6759      52.007227     -8372.6687      167.60475      181.42611      61.737219    
     54700  -8423.2435      51.544341     -8371.6992      167.56635      181.38854      61.761468    
     54800  -8422.6543      52.066089     -8370.5882      167.52742      181.35124      61.785717    
     54900  -8417.1562      49.821144     -8367.3351      167.484        181.30968      61.809966    
     55000  -8414.8532      51.79313      -8363.0601      167.447        181.27538      61.834214    
     55100  -8410.6458      52.846173     -8357.7997      167.4085       181.23791      61.858463    
     55200  -8407.7843      53.763804     -8354.0205      167.37044      181.1958       61.882712    
     55300  -8405.9918      51.57491      -8354.4169      167.33797      181.15714      61.90696     
     55400  -8401.9446      49.577653     -8352.3669      167.30135      181.11348      61.931209    
     55500  -8401.1165      51.476481     -8349.64        167.26141      181.07177      61.955458    
     55600  -8397.523       51.837319     -8345.6856      167.22524      181.03855      61.979707    
     55700  -8391.6473      50.458449     -8341.1888      167.18112      180.99879      62.003955    
     55800  -8389.1677      51.939471     -8337.2283      167.14409      180.96487      62.028204    
     55900  -8388.4135      51.971        -8336.4425      167.10977      180.93019      62.052453    
     56000  -8385.4985      50.350201     -8335.1483      167.0744       180.88727      62.076701    
     56100  -8381.732       49.723648     -8332.0084      167.04345      180.85043      62.10095     
     56200  -8378.3556      50.753314     -8327.6023      167.00606      180.81012      62.125199    
     56300  -8376.2568      54.237547     -8322.0193      166.96791      180.77416      62.149448    
     56400  -8371.2912      53.72953      -8317.5617      166.93159      180.74094      62.173696    
     56500  -8369.2469      51.470801     -8317.7761      166.88908      180.70125      62.197945    
     56600  -8366.1633      50.727627     -8315.4357      166.85631      180.66641      62.222194    
     56700  -8364.179       51.505767     -8312.6733      166.82355      180.62966      62.246442    
     56800  -8359.8924      49.824295     -8310.0681      166.786        180.58637      62.270691    
     56900  -8358.0841      50.958885     -8307.1252      166.75694      180.55247      62.29494     
     57000  -8354.3595      50.517093     -8303.8424      166.72224      180.51343      62.319189    
     57100  -8352.0701      52.046085     -8300.024       166.68758      180.47605      62.343437    
     57200  -8349.6372      53.08119      -8296.556       166.65649      180.44223      62.367686    
     57300  -8347.0556      52.272573     -8294.783       166.61831      180.40437      62.391935    
     57400  -8344.3453      51.002452     -8293.3429      166.58512      180.37082      62.416183    
     57500  -8340.0561      49.650105     -8290.406       166.54897      180.33778      62.440432    
     57600  -8335.6442      51.576571     -8284.0676      166.50882      180.30266      62.464681    
     57700  -8332.2916      52.807832     -8279.4838      166.47334      180.27385      62.48893     
     57800  -8329.3038      51.367272     -8277.9365      166.43767      180.24206      62.513178    
     57900  -8327.8441      51.519366     -8276.3247      166.40183      180.20741      62.537427    
     58000  -8323.3514      49.946672     -8273.4047      166.37092      180.17337      62.561676    
     58100  -8321.1185      50.959292     -8270.1592      166.33838      180.13599      62.585924    
     58200  -8318.0291      52.600089     -8265.429       166.30704      180.09923      62.610173    
     58300  -8312.9272      52.631901     -8260.2953      166.27312      180.06442      62.634422    
     58400  -8310.6123      51.899603     -8258.7127      166.24         180.02923      62.658671    
     58500  -8308.271       50.639026     -8257.632       166.21026      179.99823      62.682919    
     58600  -8305.5045      50.516067     -8254.9884      166.17601      179.96389      62.707168    
     58700  -8302.6179      50.984932     -8251.6329      166.14369      179.93275      62.731417    
     58800  -8298.3686      51.293659     -8247.0749      166.11329      179.90141      62.755665    
     58900  -8294.6026      52.480842     -8242.1217      166.07737      179.86649      62.779914    
     59000  -8293.0089      53.501708     -8239.5072      166.04495      179.83635      62.804163    
     59100  -8290.0169      50.894766     -8239.1221      166.00808      179.80449      62.828411    
     59200  -8288.0901      51.786519     -8236.3036      165.97301      179.77456      62.85266     
     59300  -8286.0028      52.86033      -8233.1425      165.93933      179.74707      62.876909    
     59400  -8280.1682      50.447552     -8229.7206      165.9027       179.71905      62.901158    
     59500  -8275.7547      49.348701     -8226.406       165.87011      179.69339      62.925406    
     59600  -8274.2584      50.60968      -8223.6487      165.83487      179.66461      62.949655    
     59700  -8272.3585      51.484233     -8220.8742      165.80305      179.63554      62.973904    
     59800  -8268.6057      50.385597     -8218.2201      165.77293      179.60516      62.998152    
     59900  -8265.7798      51.039996     -8214.7398      165.7432       179.57357      63.022401    
     60000  -8261.051       51.342839     -8209.7081      165.71263      179.54065      63.04665     
     60100  -8257.7152      52.870104     -8204.8451      165.68265      179.50872      63.070899    
     60200  -8254.4049      51.662798     -8202.7421      165.65307      179.47989      63.095147    
     60300  -8254.5983      52.616862     -8201.9815      165.61584      179.44946      63.119396    
     60400  -8249.5175      50.580259     -8198.9372      165.58082      179.42501      63.143645    
     60500  -8245.5565      50.07675      -8195.4798      165.54369      179.40094      63.167893    
     60600  -8241.9385      50.058065     -8191.8804      165.50514      179.37831      63.192142    
     60700  -8237.8824      49.718529     -8188.1638      165.47019      179.3548       63.216391    
     60800  -8236.2348      51.078078     -8185.1567      165.43577      179.328        63.24064     
     60900  -8232.9695      50.407797     -8182.5617      165.4061       179.30041      63.264888    
     61000  -8231.2032      50.808972     -8180.3942      165.3764       179.27153      63.289137    
     61100  -8227.3555      49.591336     -8177.7642      165.34701      179.24045      63.313386    
     61200  -8224.8198      50.283054     -8174.5367      165.32005      179.21154      63.337634    
     61300  -8220.3739      51.532449     -8168.8414      165.28654      179.17943      63.361883    
     61400  -8217.0853      53.400224     -8163.6851      165.26055      179.1521       63.386132    
     61500  -8214.5494      52.989604     -8161.5598      165.22686      179.1192       63.410381    
     61600  -8208.9738      49.267935     -8159.7059      165.19644      179.08945      63.434629    
     61700  -8207.2399      50.840048     -8156.3998      165.16842      179.06431      63.458878    
     61800  -8202.9893      49.795411     -8153.1939      165.13093      179.03578      63.483127    
     61900  -8201.4074      51.517626     -8149.8898      165.10154      179.0145       63.507375    
     62000  -8197.7727      50.16583      -8147.6068      165.0685       178.98982      63.531624    
     62100  -8196.4152      51.052171     -8145.3631      165.0329       178.96325      63.555873    
     62200  -8191.3795      50.771303     -8140.6082      165.00697      178.94256      63.580122    
     62300  -8187.0448      52.396114     -8134.6487      164.97051      178.91404      63.60437     
     62400  -8182.0957      51.29583      -8130.7998      164.94077      178.88888      63.628619    
     62500  -8179.8036      50.928813     -8128.8748      164.9108       178.86261      63.652868    
     62600  -8177.7144      51.766053     -8125.9484      164.87824      178.83509      63.677116    
     62700  -8173.9657      51.008489     -8122.9572      164.84998      178.80994      63.701365    
     62800  -8170.9198      50.45752      -8120.4623      164.81825      178.78386      63.725614    
     62900  -8169.1551      51.063433     -8118.0916      164.79343      178.76214      63.749863    
     63000  -8165.5816      49.522085     -8116.0595      164.76197      178.73575      63.774111    
     63100  -8162.1299      49.036989     -8113.0929      164.73285      178.71029      63.79836     
     63200  -8157.7561      50.749611     -8107.0065      164.70562      178.68647      63.822609    
     63300  -8151.0247      50.004562     -8101.0202      164.66977      178.65472      63.846857    
     63400  -8149.2366      51.36412      -8097.8725      164.6433       178.63023      63.871106    
     63500  -8146.8527      50.542859     -8096.3099      164.61186      178.60328      63.895355    
     63600  -8144.0873      50.568349     -8093.5189      164.58138      178.57971      63.919604    
     63700  -8139.7782      50.384404     -8089.3938      164.55024      178.55673      63.943852    
     63800  -8138.0029      51.909498     -8086.0934      164.51999      178.53432      63.968101    
     63900  -8135.8032      51.684657     -8084.1185      164.4912       178.5118       63.99235     
     64000  -8131.0698      49.095936     -8081.9738      164.46032      178.48782      64.016598    
     64100  -8129.5516      51.893408     -8077.6582      164.43487      178.46707      64.040847    
     64200  -8122.8806      52.315636     -8070.565       164.40158      178.43917      64.065096    
     64300  -8118.7007      52.115967     -8066.5847      164.37685      178.41405      64.089344    
     64400  -8116.3633      51.936709     -8064.4266      164.35171      178.3875       64.113593    
     64500  -8114.0995      51.866364     -8062.2331      164.31968      178.35795      64.137842    
     64600  -8109.6019      50.910113     -8058.6918      164.29626      178.33461      64.162091    
     64700  -8104.8134      49.880313     -8054.9331      164.26533      178.30922      64.186339    
     64800  -8101.8298      51.449547     -8050.3802      164.23383      178.28637      64.210588    
     64900  -8096.2766      50.924441     -8045.3521      164.20406      178.26635      64.234837    
     65000  -8093.6404      51.272025     -8042.3683      164.16609      178.24028      64.259085    
     65100  -8090.9541      50.328005     -8040.6261      164.13925      178.22195      64.283334    
     65200  -8087.3076      49.437639     -8037.8699      164.107        178.20078      64.307583    
     65300  -8083.6316      50.114689     -8033.5169      164.07548      178.1785       64.331832    
     65400  -8079.3227      51.90483      -8027.4178      164.04925      178.15815      64.35608     
     65500  -8072.7115      52.348776     -8020.3627      164.01813      178.13177      64.380329    
     65600  -8070.4808      52.508787     -8017.972       163.99663      178.11065      64.404578    
     65700  -8067.5492      51.515304     -8016.0339      163.9669       178.08212      64.428826    
     65800  -8065.9285      52.202027     -8013.7265      163.94232      178.05467      64.453075    
     65900  -8063.1007      51.809967     -8011.2908      163.91862      178.02665      64.477324    
     66000  -8059.4122      50.97097      -8008.4412      163.8896       177.99609      64.501573    
     66100  -8053.7643      49.406065     -8004.3582      163.86741      177.97378      64.525821    
     66200  -8050.2902      51.808644     -7998.4815      163.83373      177.94719      64.55007     
     66300  -8045.3288      53.123168     -7992.2057      163.80527      177.92842      64.574319    
     66400  -8041.3132      52.389592     -7988.9236      163.77448      177.91072      64.598567    
     66500  -8038.6424      51.525556     -7987.1168      163.73951      177.89022      64.622816    
     66600  -8035.296       51.567212     -7983.7288      163.71025      177.87208      64.647065    
     66700  -8033.1018      52.256263     -7980.8455      163.67619      177.84838      64.671314    
     66800  -8028.0833      50.499788     -7977.5836      163.64844      177.82595      64.695562    
     66900  -8024.9508      50.723318     -7974.2275      163.62261      177.80103      64.719811    
     67000  -8022.4233      50.697947     -7971.7253      163.59689      177.7732       64.74406     
     67100  -8018.236       51.065808     -7967.1702      163.57563      177.74834      64.768308    
     67200  -8012.2509      52.704279     -7959.5466      163.54753      177.71811      64.792557    
     67300  -8005.5901      51.715294     -7953.8748      163.52524      177.6923       64.816806    
     67400  -8003.9722      53.341127     -7950.6311      163.49727      177.6664       64.841055    
     67500  -7999.2493      51.213625     -7948.0356      163.46554      177.64221      64.865303    
     67600  -7994.3115      49.825138     -7944.4863      163.43629      177.62336      64.889552    
     67700  -7991.5086      50.409715     -7941.0989      163.40031      177.60198      64.913801    
     67800  -7987.5482      50.17149      -7937.3767      163.36995      177.58604      64.938049    
     67900  -7985.1379      50.514486     -7934.6234      163.33665      177.56654      64.962298    
     68000  -7982.5193      50.432019     -7932.0873      163.3078       177.54828      64.986547    
     68100  -7977.4434      51.257731     -7926.1856      163.27747      177.52491      65.010796    
     68200  -7971.2289      51.789065     -7919.4398      163.24898      177.49966      65.035044    
     68300  -7966.5637      52.300364     -7914.2634      163.2246       177.47494      65.059293    
     68400  -7961.5234      51.158859     -7910.3645      163.19304      177.44466      65.083542    
     68500  -7959.2769      52.412762     -7906.8642      163.16924      177.42075      65.10779     
     68600  -7955.1049      51.992764     -7903.1121      163.14161      177.39539      65.132039    
     68700  -7950.3418      51.333863     -7899.008       163.11314      177.37004      65.156288    
     68800  -7947.0817      51.88346      -7895.1983      163.08931      177.34898      65.180537    
     68900  -7942.3884      51.289902     -7891.0984      163.05667      177.3214       65.204785    
     69000  -7938.9797      52.26435      -7886.7154      163.03165      177.29976      65.229034    
     69100  -7934.4202      52.426946     -7881.9932      162.99904      177.27359      65.253283    
     69200  -7928.9331      50.82965      -7878.1034      162.96964      177.25022      65.277531    
     69300  -7926.3486      51.472897     -7874.8757      162.94068      177.22869      65.30178     
     69400  -7919.9137      50.609346     -7869.3044      162.90537      177.20345      65.326029    
     69500  -7915.6034      50.973526     -7864.6299      162.87929      177.18599      65.350277    
     69600  -7912.4557      51.507791     -7860.9479      162.84436      177.16136      65.374526    
     69700  -7908.6664      51.979511     -7856.6869      162.81572      177.14066      65.398775    
     69800  -7901.7434      50.366081     -7851.3774      162.78708      177.11819      65.423024    
     69900  -7897.278       50.331359     -7846.9466      162.75508      177.09221      65.447272    
     70000  -7895.3174      52.796928     -7842.5205      162.72936      177.06972      65.471521    
     70100  -7891.0598      52.937429     -7838.1224      162.69707      177.04059      65.49577     
     70200  -7886.4376      52.875471     -7833.5622      162.67118      177.01448      65.520018    
     70300  -7882.1307      52.540909     -7829.5898      162.64365      176.98735      65.544267    
     70400  -7875.9835      51.113836     -7824.8696      162.61435      176.95927      65.568516    
     70500  -7871.6216      52.136006     -7819.4856      162.58986      176.93601      65.592765    
     70600  -7866.478       51.185696     -7815.2923      162.5562       176.90791      65.617013    
     70700  -7864.3643      53.819548     -7810.5447      162.52653      176.88661      65.641262    
     70800  -7859.3323      53.186095     -7806.1462      162.49267      176.86339      65.665511    
     70900  -7855.2005      53.322301     -7801.8782      162.45741      176.84109      65.689759    
     71000  -7850.7792      53.760975     -7797.0182      162.42491      176.82228      65.714008    
     71100  -7844.7376      52.626091     -7792.1115      162.38827      176.79914      65.738257    
     71200  -7839.434       51.961702     -7787.4723      162.35662      176.7784       65.762506    
     71300  -7833.7903      50.442668     -7783.3477      162.32418      176.75607      65.786754    
     71400  -7831.8151      52.812185     -7779.0029      162.29203      176.73151      65.811003    
     71500  -7827.6201      53.832423     -7773.7876      162.26316      176.70599      65.835252    
     71600  -7821.7593      52.331401     -7769.4279      162.23257      176.67645      65.8595      
     71700  -7816.2405      52.143853     -7764.0967      162.20412      176.64766      65.883749    
     71800  -7811.1279      51.584488     -7759.5434      162.17511      176.61802      65.907998    
     71900  -7807.5396      52.815646     -7754.724       162.14324      176.58939      65.932247    
     72000  -7802.0201      51.965402     -7750.0547      162.11148      176.56457      65.956495    
     72100  -7798.673       52.649366     -7746.0237      162.07789      176.54136      65.980744    
     72200  -7791.7033      50.825144     -7740.8781      162.04251      176.51853      66.004993    
     72300  -7789.301       52.894371     -7736.4066      162.00757      176.4961       66.029241    
     72400  -7781.4866      50.576491     -7730.9101      161.97275      176.47228      66.05349     
     72500  -7777.1502      51.308166     -7725.842       161.9375       176.44605      66.077739    
     72600  -7774.171       52.659857     -7721.5111      161.90444      176.41922      66.101988    
     72700  -7770.573       53.544435     -7717.0286      161.87179      176.3916       66.126236    
[...]
    127800  -9252.6028      50.589001     -9202.0138      190.48362      171.54703      79.487276    
    127900  -9250.8497      50.474119     -9200.3756      190.54023      171.48115      79.511525    
    128000  -9248.5531      50.574568     -9197.9785      190.61271      171.42533      79.535774    
    128100  -9250.0232      53.045531     -9196.9777      190.67998      171.36448      79.560022    
    128200  -9248.4167      50.789557     -9197.6271      190.74523      171.3073       79.584271    
    128300  -9250.2631      49.921437     -9200.3416      190.81546      171.25848      79.60852     
    128400  -9250.6978      50.083842     -9200.614       190.8736       171.20286      79.632769    
    128500  -9248.8684      49.554347     -9199.314       190.94231      171.15485      79.657017    
    128600  -9248.331       50.876493     -9197.4545      190.99891      171.09318      79.681266    
    128700  -9248.0032      51.378197     -9196.625       191.06753      171.04048      79.705515    
    128800  -9246.7075      50.258666     -9196.4488      191.12125      170.986        79.729763    
    128900  -9247.665       50.712345     -9196.9527      191.17118      170.93618      79.754012    
    129000  -9248.7891      48.968854     -9199.8202      191.22114      170.89424      79.778261    
    129100  -9248.0336      48.889202     -9199.1444      191.26732      170.84934      79.80251     
    129200  -9246.7177      50.334442     -9196.3832      191.32864      170.81397      79.826758    
    129300  -9246.4085      51.08258      -9195.326       191.37759      170.76092      79.851007    
    129400  -9246.9965      51.584744     -9195.4118      191.43793      170.7171       79.875256    
    129500  -9247.2179      50.644048     -9196.5739      191.48485      170.66297      79.899504    
    129600  -9248.4518      49.563395     -9198.8884      191.54305      170.61943      79.923753    
    129700  -9247.1582      49.102227     -9198.056       191.59107      170.57379      79.948002    
    129800  -9245.9451      50.913832     -9195.0312      191.64175      170.53133      79.972251    
    129900  -9245.7636      51.511804     -9194.2517      191.69184      170.49354      79.996499    
    130000  -9243.1638      49.618871     -9193.5449      191.73444      170.4525       80.020748    
    130100  -9244.3055      51.597198     -9192.7083      191.77902      170.41621      80.044997    
    130200  -9242.8325      50.227055     -9192.6055      191.81549      170.37013      80.069245    
    130300  -9244.3225      50.218547     -9194.104       191.86019      170.33096      80.093494    
    130400  -9245.9517      50.496324     -9195.4553      191.90481      170.2927       80.117743    
    130500  -9244.7004      49.991092     -9194.7093      191.94368      170.25037      80.141992    
    130600  -9244.3226      53.185215     -9191.1374      191.99132      170.21806      80.16624     
    130700  -9241.887       51.535701     -9190.3513      192.02904      170.1772       80.190489    
    130800  -9242.7595      51.231645     -9191.5278      192.07507      170.14395      80.214738    
    130900  -9244.2186      51.248623     -9192.97        192.11158      170.09597      80.238986    
    131000  -9243.1741      49.928155     -9193.2459      192.15592      170.05955      80.263235    
    131100  -9241.5155      49.608942     -9191.9065      192.19795      170.02006      80.287484    
    131200  -9240.6529      52.700604     -9187.9523      192.23486      169.97527      80.311732    
    131300  -9240.9312      52.868974     -9188.0622      192.28163      169.93554      80.335981    
    131400  -9242.335       52.688023     -9189.6469      192.31979      169.88374      80.36023     
    131500  -9243.4655      52.404327     -9191.0611      192.36764      169.84247      80.384479    
    131600  -9242.0159      50.674088     -9191.3418      192.41243      169.79628      80.408727    
    131700  -9241.4432      53.160719     -9188.2825      192.45842      169.75073      80.432976    
    131800  -9245.2942      55.679639     -9189.6146      192.50654      169.70537      80.457225    
    131900  -9248.9866      54.415001     -9194.5716      192.54616      169.6555       80.481473    
    132000  -9250.434       51.651796     -9198.7822      192.59047      169.6126       80.505722    
    132100  -9252.9362      51.444675     -9201.4915      192.62784      169.5619       80.529971    
    132200  -9252.2265      49.537029     -9202.6895      192.67528      169.51972      80.55422     
    132300  -9250.8253      49.749462     -9201.0759      192.71974      169.47102      80.578468    
    132400  -9251.5005      52.670848     -9198.8296      192.76923      169.42554      80.602717    
    132500  -9250.7519      52.840933     -9197.911       192.81347      169.3735       80.626966    
    132600  -9250.3492      50.894181     -9199.455       192.85421      169.3198       80.651214    
    132700  -9252.1415      51.075087     -9201.0664      192.89968      169.28143      80.675463    
    132800  -9250.3448      49.454359     -9200.8904      192.93308      169.24336      80.699712    
    132900  -9249.8386      51.139264     -9198.6993      192.96194      169.21394      80.723961    
    133000  -9246.9629      50.797252     -9196.1657      192.98261      169.17792      80.748209    
    133100  -9249.1785      52.731899     -9196.4466      193.00843      169.14275      80.772458    
    133200  -9249.4152      51.603732     -9197.8114      193.04013      169.10497      80.796707    
    133300  -9249.5361      50.879254     -9198.6568      193.07529      169.07001      80.820955    
    133400  -9248.6256      49.874073     -9198.7515      193.0999       169.02798      80.845204    
    133500  -9248.3315      50.173805     -9198.1577      193.13324      168.99834      80.869453    
    133600  -9247.0933      51.919226     -9195.1741      193.15965      168.96237      80.893702    
    133700  -9246.9238      53.124777     -9193.799       193.18614      168.92819      80.91795     
    133800  -9247.6837      51.873261     -9195.8104      193.21369      168.89215      80.942199    
    133900  -9248.7587      51.827412     -9196.9313      193.2392       168.84966      80.966448    
    134000  -9248.6081      51.590931     -9197.0171      193.27311      168.81328      80.990696    
    134100  -9249.264       52.33708      -9196.927       193.30578      168.76967      81.014945    
    134200  -9247.3716      50.391637     -9196.9799      193.34205      168.72962      81.039194    
    134300  -9245.8769      49.80235      -9196.0745      193.37531      168.68078      81.063443    
    134400  -9244.5507      50.586167     -9193.9646      193.41334      168.63381      81.087691    
    134500  -9245.6831      52.591248     -9193.0919      193.45866      168.58642      81.11194     
    134600  -9246.8881      51.296464     -9195.5916      193.50358      168.52973      81.136189    
    134700  -9246.1583      49.680148     -9196.4782      193.55287      168.48226      81.160437    
    134800  -9248.4367      52.600666     -9195.8361      193.59577      168.42527      81.184686    
    134900  -9246.1354      51.499218     -9194.6362      193.64755      168.3771       81.208935    
    135000  -9242.7123      50.496434     -9192.2158      193.68708      168.31873      81.233184    
    135100  -9241.5057      50.97738      -9190.5283      193.73062      168.27078      81.257432    
    135200  -9244.9538      52.069537     -9192.8843      193.76814      168.21988      81.281681    
    135300  -9245.7471      50.616067     -9195.1311      193.80445      168.17144      81.30593     
    135400  -9244.9571      49.738355     -9195.2187      193.83939      168.12939      81.330178    
    135500  -9244.2224      50.517676     -9193.7047      193.86864      168.08036      81.354427    
    135600  -9244.0496      52.417236     -9191.6324      193.90959      168.04046      81.378676    
    135700  -9243.5151      52.881791     -9190.6333      193.93717      167.9892       81.402925    
    135800  -9243.2744      50.663682     -9192.6107      193.96791      167.94573      81.427173    
    135900  -9245.7641      51.045199     -9194.7189      193.99536      167.89998      81.451422    
    136000  -9244.4366      50.261014     -9194.1755      194.02049      167.86276      81.475671    
    136100  -9243.7435      51.870576     -9191.8729      194.04158      167.82439      81.499919    
    136200  -9240.9876      50.753108     -9190.2345      194.05829      167.78885      81.524168    
    136300  -9244.2596      53.528069     -9190.7315      194.07804      167.75634      81.548417    
    136400  -9243.8106      51.48464      -9192.326       194.09832      167.72189      81.572665    
    136500  -9245.1174      51.425426     -9193.692       194.12303      167.69134      81.596914    
    136600  -9245.0047      50.015092     -9194.9896      194.14497      167.65426      81.621163    
    136700  -9244.9577      49.532893     -9195.4248      194.17062      167.61632      81.645412    
    136800  -9246.1833      51.743467     -9194.4398      194.1953       167.57404      81.66966     
    136900  -9243.4168      52.030942     -9191.3858      194.21788      167.52726      81.693909    
    137000  -9244.1878      53.630251     -9190.5575      194.24338      167.48887      81.718158    
    137100  -9244.5386      51.96899      -9192.5696      194.26815      167.45122      81.742406    
    137200  -9245.0475      51.46893      -9193.5786      194.29854      167.41374      81.766655    
    137300  -9246.4638      52.432988     -9194.0308      194.32796      167.37107      81.790904    
    137400  -9245.2033      51.513044     -9193.6902      194.36344      167.3242       81.815153    
    137500  -9243.6125      51.598489     -9192.014       194.3975       167.27601      81.839401    
    137600  -9244.3865      54.085963     -9190.3006      194.43228      167.22955      81.86365     
    137700  -9243.1315      53.110043     -9190.0215      194.47104      167.18991      81.887899    
    137800  -9245.073       52.117514     -9192.9555      194.50194      167.14314      81.912147    
    137900  -9244.1736      50.577866     -9193.5957      194.53464      167.09808      81.936396    
    138000  -9241.323       48.827561     -9192.4955      194.56681      167.04521      81.960645    
    138100  -9242.9927      52.677778     -9190.3149      194.60273      166.99316      81.984894    
    138200  -9240.5082      51.684932     -9188.8233      194.63798      166.94337      82.009142    
    138300  -9241.8602      52.944758     -9188.9155      194.67218      166.89868      82.033391    
    138400  -9240.5848      49.333176     -9191.2516      194.70558      166.85152      82.05764     
    138500  -9241.0439      48.976528     -9192.0673      194.73208      166.80438      82.081888    
    138600  -9241.8115      51.143723     -9190.6677      194.75583      166.76206      82.106137    
    138700  -9239.6536      51.576314     -9188.0773      194.78269      166.72346      82.130386    
    138800  -9240.2449      52.90571      -9187.3392      194.80323      166.6802       82.154635    
    138900  -9239.5471      51.562517     -9187.9846      194.82324      166.63241      82.178883    
    139000  -9241.1181      52.368507     -9188.7496      194.84305      166.58783      82.203132    
    139100  -9241.1915      52.223726     -9188.9678      194.86371      166.54246      82.227381    
    139200  -9239.8642      51.103172     -9188.761       194.88727      166.49785      82.251629    
    139300  -9239.4409      50.738783     -9188.7021      194.9078       166.45132      82.275878    
    139400  -9240.0843      49.654968     -9190.4293      194.93901      166.4164       82.300127    
    139500  -9239.9776      48.780374     -9191.1972      194.96113      166.36561      82.324376    
    139600  -9241.2851      52.834431     -9188.4506      194.98229      166.31247      82.348624    
    139700  -9237.1353      50.348858     -9186.7864      195.01192      166.2636       82.372873    
    139800  -9237.8488      51.708782     -9186.1401      195.04119      166.21174      82.397122    
    139900  -9237.4492      51.505402     -9185.9438      195.06989      166.15764      82.42137     
    140000  -9238.2048      50.18637      -9188.0184      195.10248      166.10834      82.445619    
    140100  -9238.2248      49.227515     -9188.9972      195.1353       166.05701      82.469868    
    140200  -9238.9833      52.104735     -9186.8786      195.16709      166.00217      82.494117    
    140300  -9235.1747      50.319004     -9184.8557      195.1971       165.94381      82.518365    
    140400  -9235.1721      50.765897     -9184.4062      195.23204      165.8879       82.542614    
    140500  -9251.7824      61.931412     -9189.851       195.26314      165.83095      82.566863    
    140600  -9252.4184      54.425643     -9197.9927      195.29904      165.77487      82.591111    
    140700  -9257.1852      53.260348     -9203.9249      195.34446      165.71777      82.61536     
    140800  -9257.3618      53.038358     -9204.3234      195.39215      165.65628      82.639609    
    140900  -9261.8127      52.618552     -9209.1942      195.43599      165.59497      82.663858    
    141000  -9262.209       50.41159      -9211.7974      195.4767       165.53812      82.688106    
    141100  -9262.7907      51.132806     -9211.6579      195.52005      165.48042      82.712355    
    141200  -9262.1407      53.360503     -9208.7802      195.55991      165.4181       82.736604    
    141300  -9259.1093      51.894634     -9207.2147      195.59462      165.35689      82.760852    
    141400  -9259.8857      53.138506     -9206.7472      195.62693      165.299        82.785101    
    141500  -9257.7856      50.15028      -9207.6354      195.66542      165.24373      82.80935     
    141600  -9259.1011      50.023056     -9209.0781      195.70271      165.18946      82.833598    
    141700  -9259.5169      50.387775     -9209.1291      195.73743      165.13329      82.857847    
    141800  -9259.5806      52.217413     -9207.3632      195.77166      165.0756       82.882096    
    141900  -9259.3994      53.828491     -9205.5709      195.81262      165.03012      82.906345    
    142000  -9258.7179      52.483567     -9206.2343      195.83501      164.98073      82.930593    
    142100  -9259.2021      51.503432     -9207.6987      195.86784      164.93824      82.954842    
    142200  -9257.7533      49.005761     -9208.7475      195.88237      164.8854       82.979091    
    142300  -9258.8929      51.018519     -9207.8744      195.89946      164.83938      83.003339    
    142400  -9255.9185      50.960936     -9204.9576      195.91655      164.79133      83.027588    
    142500  -9256.4521      52.274925     -9204.1772      195.93593      164.73738      83.051837    
    142600  -9256.6627      50.507869     -9206.1548      195.95452      164.69165      83.076086    
    142700  -9257.8523      50.645732     -9207.2066      195.95911      164.63935      83.100334    
    142800  -9258.2767      51.408307     -9206.8684      195.97546      164.5973       83.124583    
    142900  -9256.0127      50.002148     -9206.0105      195.98693      164.55047      83.148832    
    143000  -9257.6749      52.369657     -9205.3052      196.00536      164.50186      83.17308     
    143100  -9256.4556      51.718406     -9204.7372      196.01742      164.4501       83.197329    
    143200  -9254.9273      50.17458      -9204.7528      196.02796      164.39786      83.221578    
    143300  -9257.6284      52.469048     -9205.1594      196.03687      164.35207      83.245827    
    143400  -9256.2583      49.675173     -9206.5832      196.04695      164.30358      83.270075    
    143500  -9257.1599      49.663364     -9207.4966      196.06345      164.25572      83.294324    
    143600  -9256.7453      50.618724     -9206.1266      196.08596      164.19749      83.318573    
    143700  -9254.0168      51.037045     -9202.9798      196.10936      164.13251      83.342821    

===================================================================================
=   BAD TERMINATION OF ONE OF YOUR APPLICATION PROCESSES
=   RANK 0 PID 1066914 RUNNING AT amax
=   KILLED BY SIGNAL: 15 (Terminated)
===================================================================================

===================================================================================
=   BAD TERMINATION OF ONE OF YOUR APPLICATION PROCESSES
=   RANK 1 PID 1066918 RUNNING AT amax
=   KILLED BY SIGNAL: 15 (Terminated)
===================================================================================

===================================================================================
=   BAD TERMINATION OF ONE OF YOUR APPLICATION PROCESSES
=   RANK 2 PID 1066922 RUNNING AT amax
=   KILLED BY SIGNAL: 15 (Terminated)
===================================================================================

===================================================================================
=   BAD TERMINATION OF ONE OF YOUR APPLICATION PROCESSES
=   RANK 3 PID 1066925 RUNNING AT amax
=   KILLED BY SIGNAL: 15 (Terminated)
===================================================================================

===================================================================================
=   BAD TERMINATION OF ONE OF YOUR APPLICATION PROCESSES
=   RANK 4 PID 1066928 RUNNING AT amax
=   KILLED BY SIGNAL: 15 (Terminated)
===================================================================================

===================================================================================
=   BAD TERMINATION OF ONE OF YOUR APPLICATION PROCESSES
=   RANK 5 PID 1066930 RUNNING AT amax
=   KILLED BY SIGNAL: 15 (Terminated)
===================================================================================

===================================================================================
=   BAD TERMINATION OF ONE OF YOUR APPLICATION PROCESSES
=   RANK 6 PID 1066932 RUNNING AT amax
=   KILLED BY SIGNAL: 15 (Terminated)
===================================================================================

===================================================================================
=   BAD TERMINATION OF ONE OF YOUR APPLICATION PROCESSES
=   RANK 7 PID 1066933 RUNNING AT amax
=   KILLED BY SIGNAL: 15 (Terminated)
===================================================================================

===================================================================================
=   BAD TERMINATION OF ONE OF YOUR APPLICATION PROCESSES
=   RANK 8 PID 1066934 RUNNING AT amax
=   KILLED BY SIGNAL: 15 (Terminated)
===================================================================================

===================================================================================
=   BAD TERMINATION OF ONE OF YOUR APPLICATION PROCESSES
=   RANK 9 PID 1066935 RUNNING AT amax
=   KILLED BY SIGNAL: 15 (Terminated)
===================================================================================

===================================================================================
=   BAD TERMINATION OF ONE OF YOUR APPLICATION PROCESSES
=   RANK 10 PID 1066936 RUNNING AT amax
=   KILLED BY SIGNAL: 15 (Terminated)
===================================================================================

===================================================================================
=   BAD TERMINATION OF ONE OF YOUR APPLICATION PROCESSES
=   RANK 11 PID 1066937 RUNNING AT amax
=   KILLED BY SIGNAL: 15 (Terminated)
===================================================================================
