LAMMPS (2 Aug 2023 - Update 3)
OMP_NUM_THREADS environment is not set. Defaulting to 1 thread. (src/comm.cpp:98)
  using 1 OpenMP thread(s) per MPI task

# 1------general---------------
units                             metal      #单位为lammps 中的metel 类型
dimension                    3          #模拟的维度 三维
boundary                    p p p      #周期边界条件
atom_style                  atomic   #原子类型自动
atom_modify              map array sort 100 2.0
neighbor                    3.0 bin
neigh_modify            every 1 delay 0 check yes
#2 -----global variable-------定义全局变量，方便统一修改；
variable temperature equal 300
variable tstep equal 0.001
variable pressure equal 0
variable thermalstep equal 100
variable dumpstep equal 1000
variable relaxtime equal 0
variable totaltime equal 100000
variable deformrate equal 5e-3
#3 -------model------------
#box tilt large
read_data     1.lmp
Reading data file ...
  orthogonal box = (-100 -100 -2.3312511) to (100 100 38.891558)
  4 by 4 by 1 MPI processor grid
  reading atoms ...
  784 atoms
  read_data CPU = 0.892 seconds
group SR type 2
240 atoms in group SR
delete_atoms group SR
Deleted 240 atoms, new total = 544

replicate 1 1 13
Replication is creating a 1x1x13 = 13 times larger system...
  orthogonal box = (-100 -100 -2.3312511) to (100 100 533.56527)
  2 by 2 by 4 MPI processor grid
  7072 atoms
  replicate CPU = 1.092 seconds
write_data l.data
System init for write_data ...
WARNING: Communication cutoff is 0.0. No ghost atoms will be generated. Atoms may get lost. (src/comm_brick.cpp:210)

pair_style hybrid airebo 3.0 airebo 3.0  lj/cut 10
pair_coeff * * airebo 1 CH.airebo C NULL
Reading airebo potential file CH.airebo with DATE: 2011-10-25
pair_coeff * * airebo 2 CH.airebo NULL C
Reading airebo potential file CH.airebo with DATE: 2011-10-25
pair_coeff 1 2 lj/cut 0.00456 3.431

# 5------minimize -----------
min_style      sd
minimize       1.0e-4 1.0e-6 100 1000
Neighbor list info ...
  update: every = 1 steps, delay = 0 steps, check = yes
  max neighbors/atom: 2000, page size: 100000
  master list distance cutoff = 13.2
  ghost atom cutoff = 13.2
  binsize = 6.6, bins = 31 31 82
  5 neighbor lists, perpetual/occasional/extra = 5 0 0
  (1) pair airebo, perpetual, skip from (4)
      attributes: full, newton on, ghost
      pair build: skip/ghost
      stencil: none
      bin: none
  (2) pair airebo, perpetual, skip from (4)
      attributes: full, newton on, ghost
      pair build: skip/ghost
      stencil: none
      bin: none
  (3) pair lj/cut, perpetual, skip from (5)
      attributes: half, newton on, cut 13
      pair build: skip
      stencil: none
      bin: none
  (4) neighbor class addition, perpetual
      attributes: full, newton on, ghost
      pair build: full/bin/ghost
      stencil: full/ghost/bin/3d
      bin: standard
  (5) neighbor class addition, perpetual
      attributes: half, newton on, cut 13
      pair build: half/bin/atomonly/newton
      stencil: half/bin/3d
      bin: standard
Per MPI rank memory allocation (min/avg/max) = 9.38 | 9.38 | 9.381 Mbytes
   Step          Temp          E_pair         E_mol          TotEng         Press     
         0   0             -52224.71       0             -52224.71       30.842369    
         1   0             -52225.284      0             -52225.284      30.157447    
Loop time of 0.964245 on 16 procs for 1 steps with 7072 atoms

44.2% CPU use with 16 MPI tasks x 1 OpenMP threads

Minimization stats:
  Stopping criterion = energy tolerance
  Energy initial, next-to-last, final = 
     -52224.7098978169  -52224.7098978169  -52225.2844433267
  Force two-norm initial, final = 12.541989 2.6898907
  Force max component initial, final = 0.14888908 0.031904291
  Final line search alpha, max atom move = 0.67164094 0.021428228
  Iterations, force evaluations = 1 2

MPI task timing breakdown:
Section |  min time  |  avg time  |  max time  |%varavg| %total
---------------------------------------------------------------
Pair    | 0.016382   | 0.024734   | 0.054975   |   7.2 |  2.57
Neigh   | 0          | 0          | 0          |   0.0 |  0.00
Comm    | 0.15282    | 0.22504    | 0.29524    |   8.1 | 23.34
Output  | 0          | 0          | 0          |   0.0 |  0.00
Modify  | 0          | 0          | 0          |   0.0 |  0.00
Other   |            | 0.7145     |            |       | 74.10

Nlocal:            442 ave         500 max         385 min
Histogram: 4 0 0 0 4 4 0 0 0 4
Nghost:           1670 ave        1727 max        1612 min
Histogram: 4 0 0 0 4 4 0 0 0 4
Neighs:              0 ave           0 max           0 min
Histogram: 16 0 0 0 0 0 0 0 0 0

Total # of neighbors = 0
Ave neighs/atom = 0
Neighbor list builds = 0
Dangerous builds = 0
#6----define computes------
variable nums equal count(all) #计算原子数目
variable toval equal 13.369*13.369*lz #计算系统总体积，单层石墨烯厚度为0.335nm
variable vol equal ${toval} #体系的初始体积
variable vol equal 95780.8712743822 
variable vatom equal v_vol/v_nums #单个原子体积
compute 1 all stress/atom NULL #计算体系中单原子应力
compute xalls all reduce sum c_1[1]
variable xstress equal (c_xalls)/(v_toval*10000)
compute yalls all reduce sum c_1[2]
variable ystress equal (c_yalls)/(v_toval*10000)
compute zalls all reduce sum c_1[3]
variable zstress equal (c_zalls)/(v_toval*10000)
#7---------relaxation-------------------------
timestep ${tstep}
timestep 0.001
#------------5 温度初始化------------------------------
velocity all create 300 4928459 dist gaussian units box
#------------------------------------------------------
dump   1 all atom 100 all-cy.lammpstrj
#fix    1 all npt temp 300 300  0.1 aniso 0 0  drag 1  #三个方向独立控压
fix  s all npt temp ${temperature} ${temperature} 0.1 y ${pressure} ${pressure} 10 x ${pressure} ${pressure} 10
fix  s all npt temp 300 ${temperature} 0.1 y ${pressure} ${pressure} 10 x ${pressure} ${pressure} 10
fix  s all npt temp 300 300 0.1 y ${pressure} ${pressure} 10 x ${pressure} ${pressure} 10
fix  s all npt temp 300 300 0.1 y 0 ${pressure} 10 x ${pressure} ${pressure} 10
fix  s all npt temp 300 300 0.1 y 0 0 10 x ${pressure} ${pressure} 10
fix  s all npt temp 300 300 0.1 y 0 0 10 x 0 ${pressure} 10
fix  s all npt temp 300 300 0.1 y 0 0 10 x 0 0 10
thermo                1000
thermo_modify       lost ignore
compute  2 all pe/atom
compute  pe all reduce sum c_2
variable PE equal "c_pe"
fix    pe all print 100 "${PE} " file PE.txt screen no
thermo  ${thermalstep}
thermo  100
#thermo_style  custom step pe ke etotal lx ly lz
run   ${relaxtime}
run   0
Per MPI rank memory allocation (min/avg/max) = 10 | 10.01 | 10.01 Mbytes
   Step          Temp          E_pair         E_mol          TotEng         Press          Volume    
         1   300           -52225.284      0             -51951.085      43.82041       21435861     
Loop time of 0.0394973 on 16 procs for 0 steps with 7072 atoms

42.4% CPU use with 16 MPI tasks x 1 OpenMP threads

MPI task timing breakdown:
Section |  min time  |  avg time  |  max time  |%varavg| %total
---------------------------------------------------------------
Pair    | 0          | 0          | 0          |   0.0 |  0.00
Neigh   | 0          | 0          | 0          |   0.0 |  0.00
Comm    | 0          | 0          | 0          |   0.0 |  0.00
Output  | 0          | 0          | 0          |   0.0 |  0.00
Modify  | 0          | 0          | 0          |   0.0 |  0.00
Other   |            | 0.0395     |            |       |100.00

Nlocal:            442 ave         444 max         440 min
Histogram: 8 0 0 0 0 0 0 0 0 8
Nghost:           1670 ave        1672 max        1668 min
Histogram: 8 0 0 0 0 0 0 0 0 8
Neighs:              0 ave           0 max           0 min
Histogram: 16 0 0 0 0 0 0 0 0 0

Total # of neighbors = 0
Ave neighs/atom = 0
Neighbor list builds = 0
Dangerous builds = 0
#8 -------tension-----------------------------
unfix s
undump  1
unfix  pe
reset_timestep 0
fix avestress all ave/atom 1 ${dumpstep} ${dumpstep} c_1[1] c_1[2] c_1[3] c_1[4] c_1[5] c_1[6]
fix avestress all ave/atom 1 1000 ${dumpstep} c_1[1] c_1[2] c_1[3] c_1[4] c_1[5] c_1[6]
fix avestress all ave/atom 1 1000 1000 c_1[1] c_1[2] c_1[3] c_1[4] c_1[5] c_1[6]

#-----calculation of strain and Cumulative compression--------
variable                tmp equal "lz"
variable                L0 equal ${tmp}
variable                L0 equal 535.8965198626
variable                strain equal "(lz - v_L0)/v_L0"
variable                Cumulativels equal "(lz - v_L0)/10"
fix Step all print 100 "${strain} ${Cumulativels} ${zstress}" file grapoten.txt screen no

dump 2 all custom ${dumpstep} tension.xyz type x y z f_avestress[1] f_avestress[2] f_avestress[3] f_avestress[4] f_avestress[5] f_avestress[6]
dump 2 all custom 1000 tension.xyz type x y z f_avestress[1] f_avestress[2] f_avestress[3] f_avestress[4] f_avestress[5] f_avestress[6]

fix  1 all npt temp ${temperature} ${temperature} 0.1 y ${pressure} ${pressure} 10 x ${pressure} ${pressure} 10
fix  1 all npt temp 300 ${temperature} 0.1 y ${pressure} ${pressure} 10 x ${pressure} ${pressure} 10
fix  1 all npt temp 300 300 0.1 y ${pressure} ${pressure} 10 x ${pressure} ${pressure} 10
fix  1 all npt temp 300 300 0.1 y 0 ${pressure} 10 x ${pressure} ${pressure} 10
fix  1 all npt temp 300 300 0.1 y 0 0 10 x ${pressure} ${pressure} 10
fix  1 all npt temp 300 300 0.1 y 0 0 10 x 0 ${pressure} 10
fix  1 all npt temp 300 300 0.1 y 0 0 10 x 0 0 10

thermo_style custom step pe ke etotal lx ly lz
WARNING: New thermo_style command, previous thermo_modify settings will be lost (src/output.cpp:903)
fix   2 all deform 1 z erate ${deformrate} remap x units box
fix   2 all deform 1 z erate 0.005 remap x units box
fix   3 all ave/time 2 500 1000 v_xstress v_ystress v_zstress file pressure.out
run   ${totaltime}
run   100000
WARNING: Dump 2 includes no atom IDs and is not sorted by ID. This may complicate post-processing tasks or visualization (src/dump.cpp:221)
Per MPI rank memory allocation (min/avg/max) = 11.5 | 11.51 | 11.51 Mbytes
   Step         PotEng         KinEng         TotEng           Lx             Ly             Lz      
         0  -52225.284      274.19955     -51951.085      200            200            535.89652    
       100  -52070.237      140.24948     -51929.988      200.00568      200.00762      536.16447    
       200  -52066.995      166.57344     -51900.422      200.00245      200.00724      536.43242    
       300  -52046.25       181.26345     -51864.987      199.99714      200.00395      536.70036    
       400  -52028.002      201.71693     -51826.285      200.00393      200.01292      536.96831    
       500  -52008.498      222.84756     -51785.65       199.99665      200.00749      537.23626    
       600  -51994.126      248.94975     -51745.176      199.99665      200.00838      537.50421    
       700  -51964.696      256.53066     -51708.165      200.00149      200.01417      537.77216    
       800  -51954.864      277.13655     -51677.727      199.9927       200.00588      538.04011    
       900  -51943.836      284.00512     -51659.831      199.99779      200.01111      538.30805    
      1000  -51940.47       279.12824     -51661.342      199.99648      200.01049      538.576      
      1100  -51947.117      271.78732     -51675.33       199.99053      200.00499      538.84395    
      1200  -51956.282      269.29649     -51686.985      199.99533      200.01014      539.1119     
      1300  -51953.334      266.85859     -51686.476      199.98975      200.0059       539.37985    
      1400  -51949.449      275.78927     -51673.659      199.98781      200.00512      539.6478     
      1500  -51942.524      281.03626     -51661.488      199.98828      200.00789      539.91574    
      1600  -51939.214      280.19139     -51659.022      199.98087      200.00387      540.18369    
      1700  -51943.579      277.8245      -51665.754      199.97998      200.00661      540.45164    
      1800  -51945.175      271.29388     -51673.881      199.97477      200.00548      540.71959    
      1900  -51945.385      270.84107     -51674.544      199.96942      200.00448      540.98754    
      2000  -51938.396      272.86186     -51665.535      199.96698      200.00546      541.25549    
      2100  -51929.59       274.63577     -51654.954      199.96075      200.00207      541.52343    
      2200  -51931.326      281.14206     -51650.184      199.95856      200.00184      541.79138    
      2300  -51932.408      278.20389     -51654.204      199.95369      199.99774      542.05933    
      2400  -51934.547      273.85191     -51660.695      199.95011      199.99469      542.32728    
      2500  -51931.134      268.74856     -51662.386      199.94775      199.99205      542.59523    
      2600  -51925.536      269.19122     -51656.345      199.94198      199.98576      542.86317    
      2700  -51923.039      277.21491     -51645.824      199.94048      199.98376      543.13112    
      2800  -51915.128      276.5135      -51638.614      199.93506      199.97849      543.39907    
      2900  -51916.364      277.67246     -51638.691      199.92984      199.97423      543.66702    
      3000  -51915.479      271.01463     -51644.465      199.92618      199.97249      543.93497    
      3100  -51917.758      270.6904      -51647.068      199.91777      199.96717      544.20292    
      3200  -51913.66       271.41667     -51642.243      199.91277      199.96605      544.47086    
      3300  -51906.459      274.27614     -51632.183      199.90514      199.96277      544.73881    
      3400  -51899.228      275.30027     -51623.928      199.89652      199.95947      545.00676    
      3500  -51898.293      276.36099     -51621.932      199.89031      199.95842      545.27471    
      3600  -51899.633      274.27133     -51625.362      199.88068      199.95316      545.54266    
      3700  -51898.757      271.20799     -51627.549      199.87432      199.95125      545.81061    
      3800  -51892.082      268.61643     -51623.466      199.86584      199.94615      546.07855    
      3900  -51889.494      274.67209     -51614.822      199.8586       199.94102      546.3465     
      4000  -51880.713      274.15818     -51606.555      199.85262      199.93674      546.61445    
      4100  -51880.112      277.83743     -51602.275      199.84319      199.92804      546.8824     
      4200  -51878.873      275.2594      -51603.614      199.83846      199.92357      547.15035    
      4300  -51881.315      276.62806     -51604.687      199.82986      199.91483      547.4183     
      4400  -51874.878      272.9522      -51601.926      199.8214       199.9063       547.68624    
      4500  -51865.874      270.81646     -51595.057      199.8164       199.90076      547.95419    
      4600  -51866.602      279.9908      -51586.611      199.80449      199.88948      548.22214    
      4700  -51858.351      277.84822     -51580.503      199.79747      199.88354      548.49009    
      4800  -51855.789      276.10578     -51579.683      199.78772      199.87517      548.75804    
      4900  -51854.573      273.50846     -51581.064      199.77539      199.8655       549.02598    
      5000  -51850.247      270.42235     -51579.825      199.7672       199.86025      549.29393    
      5100  -51846.203      272.85645     -51573.347      199.75353      199.84954      549.56188    
      5200  -51840.561      276.57626     -51563.985      199.74282      199.8426       549.82983    
      5300  -51827.123      269.34889     -51557.774      199.73116      199.83499      550.09778    
      5400  -51830.325      275.79671     -51554.528      199.71773      199.8243       550.36573    
      5500  -51828.203      273.86051     -51554.343      199.70754      199.81657      550.63367    
      5600  -51823.774      270.77228     -51553.002      199.69468      199.80558      550.90162    
      5700  -51821.307      273.51446     -51547.793      199.68342      199.79492      551.16957    
      5800  -51811.162      271.92248     -51539.24       199.67241      199.78398      551.43752    
      5900  -51808.17       277.21562     -51530.954      199.66013      199.77155      551.70547    
      6000  -51800.315      274.97612     -51525.339      199.64968      199.7597       551.97342    
      6100  -51799.683      276.2821      -51523.401      199.63712      199.74571      552.24136    
      6200  -51794.813      272.84753     -51521.966      199.62558      199.73336      552.50931    
      6300  -51789.508      271.9433      -51517.565      199.61252      199.71969      552.77726    
      6400  -51784.016      274.58265     -51509.433      199.59884      199.70607      553.04521    
      6500  -51775.228      275.04303     -51500.185      199.58511      199.69346      553.31316    
      6600  -51771.15       277.89458     -51493.255      199.56885      199.67899      553.58111    
      6700  -51764.706      274.48574     -51490.22       199.55352      199.66605      553.84905    
      6800  -51760.627      271.80074     -51488.826      199.53641      199.65192      554.117      
      6900  -51756.878      271.39769     -51485.481      199.51865      199.63712      554.38495    
      7000  -51748.596      270.2812      -51478.315      199.50188      199.62299      554.6529     
      7100  -51741.833      272.38229     -51469.451      199.48311      199.60647      554.92085    
      7200  -51741.265      279.72774     -51461.537      199.46598      199.59067      555.18879    
      7300  -51731.4        273.99919     -51457.4        199.44781      199.57273      555.45674    
      7400  -51729.9        274.2852      -51455.615      199.4305       199.55459      555.72469    
      7500  -51721.539      268.85459     -51452.684      199.4133       199.53568      555.99264    
      7600  -51719.487      274.05486     -51445.432      199.3949       199.51527      556.26059    
      7700  -51708.99       272.73364     -51436.256      199.37794      199.49598      556.52854    
      7800  -51702.895      275.4126      -51427.482      199.35909      199.47538      556.79648    
      7900  -51698.675      277.0341      -51421.64       199.34006      199.45474      557.06443    
      8000  -51696.632      277.86661     -51418.765      199.32111      199.43534      557.33238    
      8100  -51687.596      272.48533     -51415.111      199.29952      199.41435      557.60033    
      8200  -51682.498      273.86641     -51408.631      199.27912      199.39538      557.86828    
      8300  -51672.806      273.56429     -51399.241      199.2566       199.37532      558.13623    
      8400  -51663.935      275.19961     -51388.736      199.23304      199.35533      558.40417    
      8500  -51657.343      276.45763     -51380.886      199.21022      199.33647      558.67212    
      8600  -51651.243      274.17285     -51377.07       199.18519      199.31523      558.94007    
      8700  -51646.795      273.12092     -51373.674      199.16111      199.29484      559.20802    
      8800  -51642.957      274.59138     -51368.365      199.13623      199.27335      559.47597    
      8900  -51629.156      270.36858     -51358.788      199.11101      199.25041      559.74391    
      9000  -51626.519      278.9722      -51347.547      199.0867       199.22777      560.01186    
      9100  -51617.077      278.11628     -51338.961      199.06075      199.20314      560.27981    
      9200  -51609.659      273.36238     -51336.297      199.0357       199.17869      560.54776    
      9300  -51607.311      272.91095     -51334.4        199.01023      199.15328      560.81571    
      9400  -51598.654      272.52009     -51326.134      198.9834       199.12683      561.08366    
      9500  -51589.952      274.35543     -51315.597      198.95748      199.10147      561.3516     
      9600  -51582.533      276.62949     -51305.903      198.92946      199.07432      561.61955    
      9700  -51572.531      274.95187     -51297.579      198.90153      199.04855      561.8875     
      9800  -51567.547      271.93185     -51295.615      198.87203      199.02177      562.15545    
      9900  -51565.765      274.3349      -51291.43       198.84185      198.99566      562.4234     
     10000  -51551.659      271.09894     -51280.56       198.81067      198.96946      562.69135    
     10100  -51543.98       276.32522     -51267.655      198.77824      198.94283      562.95929    
     10200  -51533.495      275.54722     -51257.948      198.74569      198.91652      563.22724    
     10300  -51526.398      275.03258     -51251.366      198.71175      198.88887      563.49519    
     10400  -51520.746      272.4115      -51248.335      198.6781       198.86086      563.76314    
     10500  -51516.359      270.12077     -51246.238      198.64349      198.83178      564.03109    
     10600  -51505.021      269.69682     -51235.324      198.60886      198.80138      564.29904    
     10700  -51494.709      271.59281     -51223.116      198.57456      198.77005      564.56698    
     10800  -51484.69       273.78082     -51210.91       198.53914      198.73697      564.83493    
     10900  -51478.191      277.76724     -51200.424      198.50436      198.70396      565.10288    
     11000  -51466.879      274.51169     -51192.367      198.46754      198.66864      565.37083    
     11100  -51457.14       267.377       -51189.763      198.43113      198.6339       565.63878    
     11200  -51453.777      269.71168     -51184.065      198.3938       198.59839      565.90672    
     11300  -51449.001      276.75735     -51172.244      198.35463      198.56169      566.17467    
     11400  -51436.023      275.18151     -51160.841      198.31632      198.52676      566.44262    
     11500  -51427.251      275.20262     -51152.049      198.27511      198.48954      566.71057    
     11600  -51419.206      274.84501     -51144.361      198.23415      198.45317      566.97852    
     11700  -51407.433      269.82355     -51137.61       198.19273      198.41721      567.24647    
     11800  -51401.566      268.84154     -51132.724      198.14866      198.37904      567.51441    
     11900  -51395.531      270.16477     -51125.366      198.10627      198.3424       567.78236    
     12000  -51383.086      273.35055     -51109.735      198.06206      198.30395      568.05031    
     12100  -51373.865      276.73213     -51097.133      198.01765      198.26511      568.31826    
     12200  -51364.093      276.70735     -51087.386      197.9733       198.2258       568.58621    
     12300  -51351.161      272.16558     -51078.996      197.92865      198.18477      568.85416    
     12400  -51345.975      272.33271     -51073.642      197.88362      198.14306      569.1221     
     12500  -51340.35       272.76873     -51067.581      197.83814      198.09975      569.39005    
     12600  -51328.014      274.83534     -51053.179      197.79328      198.05643      569.658      
     12700  -51317.199      277.79909     -51039.4        197.74726      198.01104      569.92595    
     12800  -51305.847      276.26278     -51029.585      197.70133      197.96595      570.1939     
     12900  -51298.728      276.86575     -51021.862      197.65485      197.91949      570.46185    
     13000  -51289.757      272.46631     -51017.291      197.60754      197.87211      570.72979    
     13100  -51277.803      266.98409     -51010.819      197.55999      197.82576      570.99774    
     13200  -51269.723      274.46547     -50995.258      197.51077      197.77849      571.26569    
     13300  -51257.08       276.7847      -50980.295      197.46167      197.73182      571.53364    
     13400  -51248.773      276.91026     -50971.863      197.41171      197.68535      571.80159    
     13500  -51241.766      275.36108     -50966.405      197.36029      197.63887      572.06953    
     13600  -51235.941      276.88914     -50959.052      197.30981      197.59324      572.33748    
     13700  -51221.758      274.28534     -50947.473      197.258        197.54628      572.60543    
     13800  -51207.468      278.4052      -50929.063      197.20671      197.50021      572.87338    
     13900  -51193.972      275.56562     -50918.407      197.15581      197.45385      573.14133    
     14000  -51183.544      271.41605     -50912.128      197.10451      197.40576      573.40928    
     14100  -51179.168      273.63174     -50905.537      197.05508      197.3589       573.67722    
     14200  -51166.617      271.16052     -50895.456      197.00418      197.31011      573.94517    
     14300  -51157.938      274.75479     -50883.183      196.95547      197.26227      574.21312    
     14400  -51140.862      272.10911     -50868.753      196.9061       197.21318      574.48107    
     14500  -51129.102      279.85112     -50849.25       196.85666      197.16438      574.74902    
     14600  -51121.004      280.17478     -50840.83       196.80851      197.11682      575.01697    
     14700  -51111.545      275.51279     -50836.033      196.75845      197.0677       575.28491    
     14800  -51103.79       273.88584     -50829.905      196.71027      197.02131      575.55286    
     14900  -51095.88       274.34275     -50821.538      196.66024      196.9745       575.82081    
     15000  -51084.312      273.68232     -50810.63       196.61055      196.92859      576.08876    
     15100  -51069.429      273.91459     -50795.514      196.56214      196.88493      576.35671    
     15200  -51057.336      277.69615     -50779.64       196.5111       196.84004      576.62466    
     15300  -51048.105      278.42331     -50769.682      196.46318      196.79808      576.8926     
     15400  -51039.748      274.52478     -50765.223      196.41397      196.75433      577.16055    
     15500  -51021.745      267.04383     -50754.702      196.36585      196.7125       577.4285     
     15600  -51013.198      271.704       -50741.494      196.31878      196.67103      577.69645    
     15700  -51002.566      276.08255     -50726.484      196.27129      196.62774      577.9644     
     15800  -50989.441      277.42898     -50712.012      196.22712      196.5873       578.23234    
     15900  -50980.613      280.76191     -50699.851      196.18052      196.5441       578.50029    
     16000  -50967.312      273.36282     -50693.949      196.13705      196.50253      578.76824    
     16100  -50954.945      268.66235     -50686.282      196.09423      196.46094      579.03619    
     16200  -50948.141      274.25266     -50673.889      196.04939      196.4181       579.30414    
     16300  -50928.971      272.25671     -50656.714      196.00837      196.37908      579.57209    
     16400  -50921.546      279.25107     -50642.295      195.96477      196.33689      579.84003    
     16500  -50905.959      273.70435     -50632.255      195.92286      196.29773      580.10798    
     16600  -50896.979      273.4386      -50623.54       195.88108      196.26002      580.37593    
     16700  -50888.159      274.62465     -50613.534      195.83746      196.22056      580.64388    
     16800  -50876.727      274.37692     -50602.35       195.79726      196.18555      580.91183    
     16900  -50862.009      274.54412     -50587.465      195.75419      196.14876      581.17978    
     17000  -50849.921      280.29664     -50569.625      195.71357      196.11424      581.44772    
     17100  -50836.197      276.85144     -50559.345      195.67393      196.08022      581.71567    
     17200  -50827.045      274.05275     -50552.992      195.6329       196.04492      581.98362    
     17300  -50816.944      274.54941     -50542.394      195.59594      196.01296      582.25157    
     17400  -50804.115      275.80506     -50528.31       195.55746      195.97757      582.51952    
     17500  -50786.297      275.38861     -50510.908      195.52183      195.94387      582.78747    
     17600  -50772.883      277.82547     -50495.057      195.48728      195.91023      583.05541    
     17700  -50757.369      273.43002     -50483.939      195.45171      195.87441      583.32336    
     17800  -50748.381      274.03571     -50474.345      195.42015      195.84169      583.59131    
     17900  -50736.177      271.42659     -50464.75       195.38544      195.80613      583.85926    
     18000  -50726.814      273.21294     -50453.601      195.35345      195.77344      584.12721    
     18100  -50711.655      273.15226     -50438.503      195.32115      195.74036      584.39515    
     18200  -50698.891      278.87508     -50420.015      195.28783      195.70684      584.6631     
     18300  -50681.075      273.45246     -50407.623      195.25705      195.67722      584.93105    
     18400  -50673.287      273.21434     -50400.073      195.2228       195.6447       585.199      
     18500  -50660.745      270.99947     -50389.745      195.19213      195.61585      585.46695    
     18600  -50648.452      271.95937     -50376.493      195.16004      195.58654      585.7349     
     18700  -50634.238      272.3422      -50361.896      195.12745      195.55748      586.00284    
     18800  -50620.765      273.1741      -50347.59       195.09805      195.53128      586.27079    
     18900  -50605.985      274.74919     -50331.236      195.06604      195.50189      586.53874    
     19000  -50591.771      275.05        -50316.721      195.03769      195.47616      586.80669    
     19100  -50584.64       276.63806     -50308.002      195.00817      195.44869      587.07464    
     19200  -50572.421      273.40202     -50299.019      194.9799       195.42075      587.34259    
     19300  -50555.28       269.48905     -50285.791      194.95437      195.39475      587.61053    
     19400  -50546.321      277.88604     -50268.435      194.92651      195.36617      587.87848    
     19500  -50524.437      275.83686     -50248.6        194.90226      195.34012      588.14643    
     19600  -50514.468      278.67129     -50235.796      194.87733      195.31267      588.41438    
     19700  -50506.732      280.7724      -50225.96       194.85197      195.28543      588.68233    
     19800  -50494.36       277.48852     -50216.872      194.82884      195.26071      588.95028    
     19900  -50480.688      274.79243     -50205.896      194.80399      195.23445      589.21822    
     20000  -50464.588      272.36779     -50192.22       194.78065      195.21065      589.48617    
     20100  -50449.708      277.43933     -50172.269      194.75653      195.18791      589.75412    
     20200  -50436.091      280.12936     -50155.962      194.7318       195.16545      590.02207    
     20300  -50422.225      276.10651     -50146.119      194.70837      195.14503      590.29002    
     20400  -50409.815      274.45378     -50135.362      194.68352      195.12457      590.55796    
     20500  -50396.606      274.79999     -50121.806      194.65947      195.10551      590.82591    
     20600  -50379.368      272.6318      -50106.736      194.63628      195.08682      591.09386    
     20700  -50367.886      277.56781     -50090.318      194.61253      195.06726      591.36181    
     20800  -50350.889      276.179       -50074.709      194.59069      195.04925      591.62976    
     20900  -50333.828      277.31365     -50056.515      194.56867      195.02958      591.89771    
     21000  -50319.412      278.65258     -50040.76       194.54732      195.00907      592.16565    
     21100  -50307.746      276.61562     -50031.131      194.52813      194.99012      592.4336     
     21200  -50295.23       273.60491     -50021.625      194.50667      194.9682       592.70155    
     21300  -50283.045      275.23562     -50007.809      194.4879       194.94877      592.9695     
     21400  -50261.923      271.13225     -49990.791      194.46821      194.92848      593.23745    
     21500  -50249.945      279.92124     -49970.024      194.44735      194.90803      593.5054     
     21600  -50228.179      274.87824     -49953.301      194.42874      194.89005      593.77334    
     21700  -50219.101      276.26227     -49942.839      194.40751      194.8698       594.04129    
     21800  -50209.802      277.6467      -49932.156      194.38805      194.85257      594.30924    
     21900  -50194.817      273.57029     -49921.246      194.36698      194.83509      594.57719    
     22000  -50179.765      271.68744     -49908.078      194.34619      194.81795      594.84514    
     22100  -50166.566      275.22936     -49891.337      194.32656      194.80226      595.11309    
     22200  -50145.099      275.29687     -49869.802      194.30467      194.78472      595.38103    
     22300  -50129.954      274.97972     -49854.974      194.28557      194.7698       595.64898    
     22400  -50116.234      272.16127     -49844.073      194.26478      194.7523       595.91693    
     22500  -50103.614      271.00337     -49832.611      194.24502      194.73545      596.18488    
     22600  -50087.815      270.87307     -49816.942      194.22645      194.71897      596.45283    
     22700  -50071.701      275.07978     -49796.622      194.20642      194.69944      596.72077    
     22800  -50052.955      278.38578     -49774.569      194.18939      194.68189      596.98872    
     22900  -50038.387      275.67892     -49762.708      194.17018      194.66158      597.25667    
     23000  -50028.207      274.3484      -49753.859      194.15265      194.6424       597.52462    
     23100  -50016.581      274.21729     -49742.364      194.1348       194.62246      597.79257    
     23200  -50000.853      273.63766     -49727.216      194.11638      194.60176      598.06052    
     23300  -49985.01       277.14674     -49707.863      194.09939      194.58249      598.32846    
     23400  -49964.089      275.48523     -49688.604      194.0804       194.56185      598.59641    
     23500  -49951.047      276.60988     -49674.437      194.06265      194.54277      598.86436    
     23600  -49937.647      270.73725     -49666.909      194.04371      194.5233       599.13231    
     23700  -49921.377      268.68548     -49652.691      194.02444      194.50452      599.40026    
     23800  -49905.493      271.38449     -49634.109      194.00511      194.48658      599.66821    
     23900  -49888.306      273.89961     -49614.407      193.98497      194.46828      599.93615    
     24000  -49870.542      273.23116     -49597.311      193.96526      194.45075      600.2041     
     24100  -49859.735      275.34951     -49584.385      193.9445       194.43208      600.47205    
     24200  -49846.121      269.89789     -49576.223      193.92492      194.41446      600.74       
     24300  -49833.043      272.6306      -49560.412      193.90468      194.39547      601.00795    
     24400  -49814.09       272.91621     -49541.174      193.88529      194.37659      601.2759     
     24500  -49793.847      270.70134     -49523.146      193.86679      194.35756      601.54384    
     24600  -49781.527      274.4871      -49507.04       193.84782      194.33713      601.81179    
     24700  -49764.62       272.23293     -49492.387      193.8304       194.31738      602.07974    
     24800  -49751.751      269.01734     -49482.733      193.8124       194.29665      602.34769    
     24900  -49741.005      269.65907     -49471.346      193.79536      194.27675      602.61564    
     25000  -49724.603      273.00889     -49451.594      193.77796      194.25687      602.88358    
     25100  -49709.048      277.31988     -49431.728      193.76011      194.23724      603.15153    
     25200  -49687.027      273.66044     -49413.367      193.74281      194.21939      603.41948    
     25300  -49670.073      274.78822     -49395.285      193.72362      194.20063      603.68743    
     25400  -49655.134      277.17027     -49377.964      193.70537      194.18412      603.95538    
     25500  -49635.35       276.00986     -49359.34       193.68547      194.16699      604.22333    
     25600  -49615.427      274.38274     -49341.044      193.66539      194.15084      604.49127    
     25700  -49599.025      271.32755     -49327.698      193.6452       194.13481      604.75922    
     25800  -49589.967      272.71131     -49317.255      193.62423      194.11819      605.02717    
     25900  -49573.004      271.43026     -49301.573      193.60337      194.10173      605.29512    
     26000  -49556.62       274.01419     -49282.606      193.58281      194.08506      605.56307    
     26100  -49540.788      277.20188     -49263.586      193.56253      194.06726      605.83102    
     26200  -49519.931      273.185       -49246.746      193.54248      194.04912      606.09896    
     26300  -49508.666      277.25243     -49231.413      193.52318      194.03115      606.36691    
     26400  -49491.222      273.58952     -49217.633      193.50372      194.01192      606.63486    
     26500  -49475.375      271.21871     -49204.156      193.48507      193.99288      606.90281    
     26600  -49459.946      272.44591     -49187.501      193.46645      193.97359      607.17076    
     26700  -49437.553      272.61186     -49164.941      193.44769      193.95416      607.43871    
     26800  -49421.569      275.99204     -49145.577      193.42934      193.93525      607.70665    
     26900  -49406.938      276.30297     -49130.635      193.40986      193.9156       607.9746     
     27000  -49389.174      270.83363     -49118.34       193.39131      193.89762      608.24255    
     27100  -49376.321      268.91734     -49107.403      193.37034      193.87811      608.5105     
     27200  -49363.261      268.56559     -49094.695      193.35058      193.86019      608.77845    
     27300  -49341.561      269.93284     -49071.628      193.32932      193.8415       609.04639    
     27400  -49322.279      273.27134     -49049.008      193.30753      193.82247      609.31434    
     27500  -49302.247      274.46678     -49027.78       193.28622      193.8046       609.58229    
     27600  -49283.659      274.57316     -49009.085      193.26282      193.78453      609.85024    
     27700  -49273.476      278.81275     -48994.663      193.24184      193.76641      610.11819    
     27800  -49259.147      275.55227     -48983.595      193.2185       193.74475      610.38614    
     27900  -49241.049      272.8465      -48968.203      193.19766      193.72503      610.65408    
     28000  -49221.503      272.37175     -48949.131      193.17613      193.70357      610.92203    
     28100  -49206.356      276.27257     -48930.083      193.15431      193.68047      611.18998    
     28200  -49181.372      269.41498     -48911.957      193.13551      193.65939      611.45793    
     28300  -49166.896      272.80437     -48894.092      193.11332      193.63434      611.72588    
     28400  -49148.719      272.81268     -48875.906      193.09458      193.61219      611.99383    
     28500  -49132.396      277.04446     -48855.352      193.07344      193.58751      612.26177    
     28600  -49117.852      280.90304     -48836.949      193.05255      193.56347      612.52972    
     28700  -49097.011      273.0548      -48823.957      193.03229      193.54058      612.79767    
     28800  -49085.958      274.34775     -48811.61       193.00885      193.51529      613.06562    
     28900  -49068.219      273.47728     -48794.742      192.98825      193.49391      613.33357    
     29000  -49051.185      276.80847     -48774.376      192.96359      193.46957      613.60152    
     29100  -49029.962      275.86111     -48754.101      192.9405       193.44772      613.86946    
     29200  -49011.335      274.12353     -48737.212      192.91705      193.42625      614.13741    
     29300  -48998.515      277.0043      -48721.511      192.89114      193.40265      614.40536    
     29400  -48979.781      272.7903      -48706.991      192.86865      193.38304      614.67331    
     29500  -48966.817      274.52587     -48692.291      192.84281      193.35977      614.94126    
     29600  -48948.151      272.62877     -48675.522      192.81986      193.33894      615.2092     
     29700  -48925.275      273.5762      -48651.698      192.79674      193.31748      615.47715    
     29800  -48906.356      275.6322      -48630.724      192.77256      193.29404      615.7451     
     29900  -48890.147      276.28788     -48613.859      192.75204      193.27345      616.01305    
     30000  -48871.085      271.2911      -48599.794      192.72776      193.24836      616.281      
     30100  -48853.587      266.12215     -48587.465      192.70732      193.22668      616.54895    
     30200  -48840.269      272.95502     -48567.314      192.68473      193.20281      616.81689    
     30300  -48817.84       275.5552      -48542.285      192.6619       193.17838      617.08484    
     30400  -48795.942      272.6532      -48523.289      192.64067      193.15585      617.35279    
     30500  -48781.449      276.03778     -48505.411      192.61604      193.13053      617.62074    
     30600  -48763.949      274.30972     -48489.639      192.59397      193.1088       617.88869    
     30700  -48748.732      272.5255      -48476.206      192.56831      193.08442      618.15664    
     30800  -48731.657      271.11656     -48460.541      192.54432      193.06257      618.42458    
     30900  -48712.824      275.12264     -48437.702      192.5192       193.04038      618.69253    
     31000  -48696.462      281.59903     -48414.862      192.49263      193.01781      618.96048    
     31100  -48673.361      275.17346     -48398.188      192.46818      192.99781      619.22843    
     31200  -48656.466      272.32893     -48384.137      192.44047      192.97474      619.49638    
     31300  -48641.318      272.45029     -48368.868      192.41586      192.95505      619.76433    
     31400  -48622.184      273.80679     -48348.377      192.38861      192.93226      620.03227    
     31500  -48596.412      273.04297     -48323.369      192.3635       192.91102      620.30022    
     31600  -48582.627      278.61512     -48304.012      192.33819      192.88845      620.56817    
     31700  -48558.028      270.21919     -48287.808      192.31226      192.86388      620.83612    
     31800  -48545.87       271.81372     -48274.056      192.28923      192.84086      621.10407    
     31900  -48528.244      271.30443     -48256.94       192.26293      192.81374      621.37201    
     32000  -48507.165      275.33643     -48231.829      192.2403       192.78902      621.63996    
     32100  -48484.858      273.80748     -48211.051      192.21566      192.76126      621.90791    
     32200  -48465.594      270.77152     -48194.823      192.19176      192.73395      622.17586    
     32300  -48456.479      275.11143     -48181.368      192.16779      192.70709      622.44381    
     32400  -48437.063      271.2669      -48165.797      192.14233      192.67908      622.71176    
     32500  -48420.28       277.00896     -48143.271      192.11769      192.65302      622.9797     
     32600  -48395.644      277.13999     -48118.504      192.091        192.62596      623.24765    
     32700  -48377.998      276.25047     -48101.747      192.06456      192.60034      623.5156     
     32800  -48358.954      271.30293     -48087.651      192.03725      192.57478      623.78355    
     32900  -48345.998      274.69629     -48071.301      192.00903      192.54881      624.0515     
     33000  -48322.118      271.99268     -48050.125      191.98131      192.52369      624.31945    
     33100  -48304.71       279.86071     -48024.85       191.95271      192.49783      624.58739    
     33200  -48279.829      273.12909     -48006.7        191.92426      192.47159      624.85534    
     33300  -48266.222      275.18136     -47991.04       191.8962       192.44536      625.12329    
     33400  -48249.652      272.89813     -47976.754      191.86823      192.4181       625.39124    
     33500  -48235.349      272.6052      -47962.744      191.84058      192.39037      625.65919    
     33600  -48222.008      271.07504     -47950.933      191.81368      192.36194      625.92714    
     33700  -48198.809      270.05983     -47928.749      191.78719      192.33294      626.19508    
     33800  -48176.767      271.88989     -47904.877      191.76126      192.30403      626.46303    
     33900  -48158.544      276.35042     -47882.194      191.73534      192.275        626.73098    
     34000  -48139.306      278.86279     -47860.443      191.71013      192.24612      626.99893    
     34100  -48110.432      268.70544     -47841.726      191.68493      192.21758      627.26688    
     34200  -48101.689      274.59298     -47827.096      191.65887      192.18909      627.53482    
     34300  -48084.678      271.54357     -47813.134      191.63344      192.16251      627.80277    
     34400  -48061.693      270.5028      -47791.19       191.6061       192.13511      628.07072    
     34500  -48043.396      276.63158     -47766.765      191.57935      192.1095       628.33867    
     34600  -48019.717      273.46527     -47746.252      191.55113      192.08381      628.60662    
     34700  -48002.494      276.8674      -47725.627      191.52245      192.05907      628.87457    
     34800  -47975.887      270.68465     -47705.202      191.4935       192.03447      629.14251    
     34900  -47960.433      275.04531     -47685.388      191.46383      192.00922      629.41046    
     35000  -47944.925      276.60588     -47668.319      191.43492      191.98508      629.67841    
     35100  -47927.91       273.6288      -47654.281      191.40444      191.95933      629.94636    
     35200  -47906.825      269.93919     -47636.886      191.37595      191.93488      630.21431    
     35300  -47888.53       274.75616     -47613.774      191.3468       191.90872      630.48226    
     35400  -47865.115      276.06055     -47589.054      191.31922      191.88288      630.7502     
     35500  -47845.026      273.66803     -47571.358      191.2918       191.85604      631.01815    
     35600  -47826.456      270.70018     -47555.756      191.26488      191.82838      631.2861     
     35700  -47813.555      274.97357     -47538.581      191.23954      191.80174      631.55405    
     35800  -47789.141      270.59168     -47518.549      191.21252      191.77295      631.822      
     35900  -47768.771      273.08251     -47495.689      191.18787      191.74668      632.08995    
     36000  -47748.007      273.57837     -47474.428      191.16101      191.71804      632.35789    
     36100  -47728.11       272.48188     -47455.628      191.1353       191.69077      632.62584    
     36200  -47713.406      276.72134     -47436.684      191.10823      191.66297      632.89379    
     36300  -47688.801      271.71099     -47417.09       191.08067      191.63569      633.16174    
     36400  -47669.944      272.87005     -47397.074      191.05271      191.60923      633.42969    
     36500  -47653.421      277.90093     -47375.52       191.02308      191.58192      633.69763    
     36600  -47633.139      279.4974      -47353.641      190.99486      191.55656      633.96558    
     36700  -47611.789      275.90969     -47335.88       190.96415      191.52954      634.23353    
     36800  -47594.189      271.133       -47323.056      190.93456      191.50396      634.50148    
     36900  -47578.204      273.27781     -47304.926      190.90463      191.4779       634.76943    
     37000  -47557.03       274.39405     -47282.636      190.87442      191.45105      635.03738    
     37100  -47532.784      273.50439     -47259.279      190.84568      191.42464      635.30532    
     37200  -47517.625      278.3321      -47239.293      190.81649      191.39668      635.57327    
     37300  -47495.53       274.49359     -47221.036      190.78858      191.36894      635.84122    
     37400  -47478.979      276.36531     -47202.613      190.76088      191.33979      636.10917    
     37500  -47459.227      276.27253     -47182.955      190.734        191.30986      636.37712    
     37600  -47432.939      274.02661     -47158.913      190.70798      191.27974      636.64507    
     37700  -47411.477      275.31233     -47136.164      190.68144      191.24828      636.91301    
     37800  -47394.674      274.40786     -47120.266      190.65584      191.21754      637.18096    
     37900  -47380.423      274.06608     -47106.357      190.62935      191.18598      637.44891    
     38000  -47362.225      275.3995      -47086.826      190.60358      191.15569      637.71686    
     38100  -47339.647      273.67306     -47065.974      190.5765       191.1252       637.98481    
     38200  -47321.553      277.35101     -47044.202      190.54966      191.09655      638.25276    
     38300  -47297.984      276.98091     -47021.003      190.52209      191.06849      638.5207     
     38400  -47280.909      279.78449     -47001.124      190.49384      191.04125      638.78865    
     38500  -47261.256      273.63364     -46987.623      190.46583      191.01549      639.0566     
     38600  -47247.972      277.10543     -46970.866      190.43697      190.99019      639.32455    
     38700  -47221.946      272.6319      -46949.314      190.4084       190.96592      639.5925     
     38800  -47202.167      276.70403     -46925.463      190.37942      190.94122      639.86044    
     38900  -47174.578      270.72025     -46903.857      190.35131      190.91749      640.12839    
     39000  -47158.203      274.2853      -46883.917      190.32258      190.89265      640.39634    
     39100  -47138.241      274.51755     -46863.723      190.29512      190.8684       640.66429    
     39200  -47116.2        272.58476     -46843.615      190.26745      190.8425       640.93224    
     39300  -47096.439      271.88832     -46824.551      190.24111      190.81689      641.20019    
     39400  -47082.335      275.35063     -46806.984      190.21464      190.79001      641.46813    
     39500  -47056.997      268.75628     -46788.241      190.18905      190.76351      641.73608    
     39600  -47038.087      272.64042     -46765.446      190.16369      190.73642      642.00403    
     39700  -47017.191      276.70159     -46740.489      190.13883      190.70925      642.27198    
     39800  -47000.833      280.5374      -46720.295      190.11426      190.68257      642.53993    
     39900  -46978.776      271.50327     -46707.273      190.08904      190.65576      642.80788    
     40000  -46963.423      273.31351     -46690.109      190.06488      190.63094      643.07582    
     40100  -46940.672      272.88108     -46667.791      190.03883      190.60491      643.34377    
     40200  -46917.874      274.80666     -46643.067      190.01412      190.58106      643.61172    
     40300  -46893.946      273.54025     -46620.406      189.98765      190.55682      643.87967    
     40400  -46876.386      275.89322     -46600.492      189.96085      190.53342      644.14762    
     40500  -46855.483      271.72186     -46583.761      189.93416      190.51121      644.41557    
     40600  -46839.825      269.78222     -46570.043      189.90563      190.48757      644.68351    
     40700  -46819.793      272.49494     -46547.298      189.8792       190.46602      644.95146    
     40800  -46798.327      276.21768     -46522.109      189.85012      190.44195      645.21941    
     40900  -46775.296      275.31037     -46499.986      189.82383      190.41954      645.48736    
     41000  -46752.16       272.89935     -46479.26       189.79672      190.39513      645.75531    
     41100  -46732.889      271.99884     -46460.891      189.77054      190.37023      646.02325    
     41200  -46717.411      271.48879     -46445.922      189.74561      190.34499      646.2912     
     41300  -46700.139      273.01748     -46427.121      189.72072      190.31838      646.55915    
     41400  -46674.483      274.07613     -46400.407      189.6976       190.29239      646.8271     
     41500  -46653.873      276.38057     -46377.493      189.67369      190.26443      647.09505    
     41600  -46629.667      272.3287      -46357.339      189.65151      190.2378       647.363      
     41700  -46614.029      274.87472     -46339.154      189.62808      190.20976      647.63094    
     41800  -46592.872      270.25513     -46322.616      189.60569      190.18265      647.89889    
     41900  -46573.008      268.91353     -46304.094      189.58238      190.15491      648.16684    
     42000  -46556.258      278.49588     -46277.762      189.55916      190.12841      648.43479    
     42100  -46527.335      273.91985     -46253.415      189.53462      190.10158      648.70274    
     42200  -46509.023      275.66402     -46233.359      189.51032      190.07643      648.97069    
     42300  -46491.696      274.41894     -46217.277      189.48452      190.05091      649.23863    
     42400  -46474.986      273.90714     -46201.079      189.45982      190.02729      649.50658    
     42500  -46454.544      273.40866     -46181.135      189.43352      190.00286      649.77453    
     42600  -46429.041      273.26155     -46155.779      189.40864      189.98059      650.04248    
     42700  -46403.517      275.32784     -46128.19       189.38293      189.95747      650.31043    
     42800  -46389.802      278.41161     -46111.39       189.3583       189.93596      650.57838    
     42900  -46369.889      273.5187      -46096.37       189.33323      189.91366      650.84632    
     43000  -46353.505      275.2054      -46078.299      189.30929      189.89237      651.11427    
     43100  -46324.838      269.31478     -46055.523      189.28566      189.87053      651.38222    
     43200  -46304.098      275.46178     -46028.636      189.2627       189.84818      651.65017    
     43300  -46286.714      279.34086     -46007.373      189.24053      189.82598      651.91812    
     43400  -46264.365      274.84073     -45989.524      189.21822      189.80284      652.18606    
     43500  -46245.859      274.12542     -45971.733      189.19699      189.78015      652.45401    
     43600  -46225.301      274.91789     -45950.383      189.17512      189.75643      652.72196    
     43700  -46200.095      278.15193     -45921.943      189.15464      189.73393      652.98991    
     43800  -46177.33       276.32085     -45901.01       189.13249      189.71005      653.25786    
     43900  -46160.449      274.29144     -45886.158      189.11176      189.6881       653.52581    
     44000  -46142.169      273.704       -45868.465      189.08963      189.66549      653.79375    
     44100  -46123.561      274.81613     -45848.745      189.06778      189.64418      654.0617     
     44200  -46095.774      269.04138     -45826.733      189.04612      189.62367      654.32965    
     44300  -46075.992      275.59332     -45800.399      189.02343      189.60308      654.5976     
     44400  -46057.074      280.05269     -45777.021      189.00155      189.58449      654.86555    
     44500  -46035.781      274.09795     -45761.683      188.97784      189.56465      655.1335     
     44600  -46018.955      275.36133     -45743.594      188.95628      189.54706      655.40144    
     44700  -45994.576      273.11423     -45721.462      188.93243      189.52734      655.66939    
     44800  -45973.597      275.63722     -45697.96       188.91075      189.50963      655.93734    
     44900  -45950.896      277.01688     -45673.879      188.88684      189.48958      656.20529    
     45000  -45924.938      275.9508      -45648.987      188.86547      189.4711       656.47324    
     45100  -45907.489      278.09589     -45629.393      188.84293      189.45049      656.74119    
     45200  -45889.684      273.81723     -45615.867      188.82158      189.42988      657.00913    
     45300  -45874.536      277.25033     -45597.286      188.80081      189.40879      657.27708    
     45400  -45849.322      272.62257     -45576.7        188.77993      189.38653      657.54503    
     45500  -45825.99       272.32103     -45553.669      188.7605       189.36489      657.81298    
     45600  -45806.002      277.55392     -45528.448      188.74025      189.34146      658.08093    
     45700  -45785.571      279.70237     -45505.868      188.72183      189.31948      658.34887    
     45800  -45771.594      279.55379     -45492.04       188.7021       189.29596      658.61682    
     45900  -45743.775      269.72477     -45474.05       188.68366      189.2736       658.88477    
     46000  -45725.777      274.01237     -45451.764      188.6637       189.25013      659.15272    
     46100  -45702.801      276.1191      -45426.682      188.64475      189.22816      659.42067    
     46200  -45680.573      278.03464     -45402.538      188.62465      189.20585      659.68862    
     46300  -45660.676      276.00849     -45384.667      188.60344      189.18377      659.95656    
     46400  -45642.557      272.19615     -45370.361      188.58314      189.1634       660.22451    
     46500  -45620.669      272.1929      -45348.476      188.56083      189.1417       660.49246    
     46600  -45600.617      276.92713     -45323.69       188.53983      189.12204      660.76041    
     46700  -45578.92       277.24183     -45301.678      188.51708      189.10108      661.02836    
     46800  -45561.496      274.68859     -45286.808      188.49628      189.08246      661.29631    
     46900  -45541.54       272.38021     -45269.16       188.47393      189.06214      661.56425    
     47000  -45520.93       275.56522     -45245.365      188.45381      189.04376      661.8322     
     47100  -45493.092      273.2171      -45219.875      188.43266      189.0242       662.10015    
     47200  -45472.701      275.75191     -45196.949      188.41318      189.00587      662.3681     
     47300  -45450.338      270.51763     -45179.821      188.39361      188.98654      662.63605    
     47400  -45438.732      272.80055     -45165.932      188.37491      188.96723      662.904      
     47500  -45416.167      274.74815     -45141.418      188.35723      188.94792      663.17194    
     47600  -45386.237      271.51007     -45114.727      188.33884      188.92754      663.43989    
     47700  -45368.659      277.98622     -45090.672      188.32187      188.90834      663.70784    
     47800  -45348.193      277.56571     -45070.627      188.30377      188.88781      663.97579    
     47900  -45328.055      273.55338     -45054.501      188.28665      188.8686       664.24374    
     48000  -45308.923      272.05471     -45036.868      188.26796      188.84853      664.51168    
     48100  -45287.189      274.09883     -45013.09       188.24998      188.82999      664.77963    
     48200  -45262.161      274.35922     -44987.802      188.2307       188.8111       665.04758    
     48300  -45243.112      276.7399      -44966.372      188.21213      188.79363      665.31553    
     48400  -45222.352      275.89112     -44946.461      188.19236      188.77587      665.58348    
     48500  -45201.006      273.75677     -44927.249      188.17323      188.75973      665.85143    
     48600  -45179.23       270.0964      -44909.134      188.1532       188.74351      666.11937    
     48700  -45160.943      272.1945      -44888.748      188.13329      188.7279       666.38732    
     48800  -45133.683      272.71619     -44860.967      188.11353      188.71253      666.65527    
     48900  -45114.027      278.54994     -44835.477      188.09353      188.69693      666.92322    
     49000  -45088.802      273.97146     -44814.831      188.07414      188.68131      667.19117    
     49100  -45068.935      271.16995     -44797.765      188.05471      188.66494      667.45912    
     49200  -45052.743      273.2219      -44779.522      188.0356       188.64799      667.72706    
     49300  -45031.774      274.67205     -44757.102      188.01716      188.63062      667.99501    
     49400  -45001.665      274.68113     -44726.983      187.99897      188.61203      668.26296    
     49500  -44983.931      279.37112     -44704.559      187.9818       188.59337      668.53091    
     49600  -44960.063      271.66685     -44688.396      187.96433      188.57346      668.79886    
     49700  -44941.84       271.69453     -44670.145      187.94775      188.55412      669.06681    
     49800  -44922.871      273.57221     -44649.299      187.93031      188.53372      669.33475    
     49900  -44902.713      275.18457     -44627.528      187.91399      188.51396      669.6027     
     50000  -44885.128      277.26394     -44607.864      187.8968       188.49312      669.87065    
     50100  -44859.389      270.79919     -44588.59       187.88026      188.47329      670.1386     
     50200  -44839.938      275.19958     -44564.738      187.86315      188.45373      670.40655    
     50300  -44812.494      275.37123     -44537.123      187.84474      188.43388      670.67449    
     50400  -44790.446      275.73419     -44514.711      187.82709      188.41544      670.94244    
     50500  -44772.291      274.68457     -44497.607      187.80745      188.39634      671.21039    
     50600  -44754.445      275.48255     -44478.962      187.78839      188.37847      671.47834    
     50700  -44731.635      275.08184     -44456.553      187.7681       188.36003      671.74629    
     50800  -44708.694      274.74452     -44433.949      187.7481       188.34233      672.01424    
     50900  -44687.476      274.72574     -44412.75       187.72819      188.32456      672.28218    
     51000  -44670.826      275.51147     -44395.314      187.70807      188.3064       672.55013    
     51100  -44648.685      271.17769     -44377.507      187.68925      188.28915      672.81808    
     51200  -44625.903      271.92354     -44353.979      187.6695       188.27015      673.08603    
     51300  -44602.323      274.63363     -44327.689      187.6524       188.25343      673.35398    
     51400  -44581.205      279.46287     -44301.742      187.6335       188.2339       673.62193    
     51500  -44557.28       284.36881     -44272.911      187.61777      188.21668      673.88987    
     51600  -44533.35       277.5242      -44255.825      187.60035      188.19671      674.15782    
     51700  -44515.908      276.60585     -44239.302      187.5857       188.17908      674.42577    
     51800  -44493.252      271.57239     -44221.679      187.56899      188.15927      674.69372    
     51900  -44474.574      272.34879     -44202.225      187.55383      188.14101      674.96167    
     52000  -44449.925      271.64018     -44178.285      187.53795      188.1221       675.22962    
     52100  -44429.388      278.84539     -44150.543      187.52135      188.10286      675.49756    
     52200  -44406.882      279.20389     -44127.678      187.50562      188.08526      675.76551    
     52300  -44390.185      276.32718     -44113.858      187.48759      188.06636      676.03346    
     52400  -44371.994      278.11176     -44093.882      187.47115      188.05003      676.30141    
     52500  -44345.957      274.68195     -44071.275      187.45178      188.03219      676.56936    
     52600  -44326.661      278.14147     -44048.52       187.43439      188.01718      676.8373     
     52700  -44301.33       274.0188      -44027.311      187.41436      188.00084      677.10525    
     52800  -44280.339      271.23825     -44009.101      187.39623      187.98701      677.3732     
     52900  -44261.467      271.85968     -43989.607      187.37631      187.97182      677.64115    
     53000  -44236.572      272.50304     -43964.069      187.35801      187.95818      677.9091     
     53100  -44211.969      277.1895      -43934.779      187.33799      187.94312      678.17705    
     53200  -44186.908      273.62724     -43913.28       187.31935      187.92898      678.44499    
     53300  -44169.781      274.3105      -43895.47       187.301        187.91393      678.71294    
     53400  -44147.198      271.84447     -43875.353      187.28196      187.89713      678.98089    
     53500  -44128.098      275.23771     -43852.861      187.26547      187.88156      679.24884    
     53600  -44105.936      276.84365     -43829.092      187.2468       187.86274      679.51679    
     53700  -44082.092      277.69829     -43804.393      187.23145      187.84599      679.78474    
     53800  -44061.204      277.50235     -43783.702      187.21343      187.82563      680.05268    
     53900  -44040.034      273.50235     -43766.532      187.19869      187.80776      680.32063    
     54000  -44019.406      272.80366     -43746.602      187.18166      187.78714      680.58858    
     54100  -43995.717      271.41759     -43724.3        187.16629      187.7681       680.85653    
     54200  -43974.543      274.47769     -43700.065      187.14999      187.74797      681.12448    
     54300  -43950.235      276.45734     -43673.778      187.13384      187.72788      681.39243    
     54400  -43928.958      278.08291     -43650.876      187.11816      187.70877      681.66037    
     54500  -43906.983      272.86149     -43634.122      187.10043      187.68847      681.92832    
     54600  -43890.375      276.79804     -43613.577      187.08403      187.67037      682.19627    
     54700  -43868.08       276.15956     -43591.92       187.0648       187.65062      682.46422    
     54800  -43843.895      274.36002     -43569.535      187.04695      187.63299      682.73217    
     54900  -43821.887      272.35756     -43549.529      187.02703      187.61439      683.00011    
     55000  -43804.179      273.58212     -43530.597      187.00755      187.59689      683.26806    
     55100  -43781.989      274.06591     -43507.923      186.98753      187.5795       683.53601    
     55200  -43758.98       276.20651     -43482.774      186.96697      187.56146      683.80396    
     55300  -43735.525      279.07578     -43456.449      186.94799      187.54465      684.07191    
     55400  -43714.599      278.39306     -43436.206      186.92771      187.52614      684.33986    
     55500  -43692.455      273.31283     -43419.142      186.91019      187.51035      684.6078     
     55600  -43671.741      273.14624     -43398.595      186.88998      187.49126      684.87575    
     55700  -43648.769      272.85726     -43375.911      186.87356      187.47513      685.1437     
     55800  -43626.953      273.95479     -43352.998      186.85526      187.45581      685.41165    
     55900  -43606.308      275.39855     -43330.91       186.83955      187.43819      685.6796     
     56000  -43584.551      274.05919     -43310.492      186.8224       187.41879      685.94755    
     56100  -43560.746      273.27193     -43287.474      186.80647      187.40038      686.21549    
     56200  -43538.969      277.77657     -43261.193      186.79024      187.38108      686.48344    
     56300  -43511.871      277.51782     -43234.354      186.77387      187.36152      686.75139    
     56400  -43492.304      277.51139     -43214.793      186.75803      187.34245      687.01934    
     56500  -43472.32       274.99921     -43197.321      186.74123      187.32316      687.28729    
     56600  -43448.006      272.55037     -43175.455      186.72418      187.30471      687.55523    
     56700  -43429.077      274.98012     -43154.097      186.70641      187.28646      687.82318    
     56800  -43404.985      270.90662     -43134.078      186.6889       187.26931      688.09113    
     56900  -43389.805      274.33541     -43115.47       186.67009      187.2519       688.35908    
     57000  -43364.538      270.5561      -43093.982      186.65171      187.23636      688.62703    
     57100  -43337.369      274.83967     -43062.529      186.63171      187.22044      688.89498    
     57200  -43313.587      278.40474     -43035.183      186.61237      187.20547      689.16292    
     57300  -43292.245      276.84713     -43015.398      186.59261      187.19034      689.43087    
     57400  -43272.139      275.70757     -42996.431      186.57305      187.17538      689.69882    
     57500  -43249.034      274.37756     -42974.657      186.55276      187.15939      689.96677    
     57600  -43226.439      274.45153     -42951.988      186.53392      187.1439       690.23472    
     57700  -43201.581      270.68343     -42930.897      186.51409      187.12676      690.50267    
     57800  -43186.382      273.79363     -42912.588      186.4958       187.11012      690.77061    
     57900  -43160.159      271.52547     -42888.633      186.47653      187.09135      691.03856    
     58000  -43133.602      273.76757     -42859.834      186.45899      187.07332      691.30651    
     58100  -43109.624      278.33704     -42831.287      186.44081      187.05357      691.57446    
     58200  -43090.578      278.52637     -42812.051      186.42384      187.03423      691.84241    
     58300  -43064.891      273.3724      -42791.519      186.40664      187.01408      692.11036    
     58400  -43047.601      276.25998     -42771.341      186.39004      186.99375      692.3783     
     58500  -43023.667      272.22448     -42751.442      186.37326      186.97265      692.64625    
     58600  -43002.015      273.13396     -42728.881      186.35674      186.95209      692.9142     
     58700  -42980.112      275.23784     -42704.874      186.33909      186.93097      693.18215    
     58800  -42953.976      273.40136     -42680.575      186.32136      186.9103       693.4501     
     58900  -42932.216      273.3837      -42658.833      186.30359      186.88991      693.71804    
     59000  -42908.844      269.64913     -42639.195      186.28463      186.869        693.98599    
     59100  -42888.102      271.8098      -42616.292      186.26614      186.84952      694.25394    
     59200  -42866.564      273.29984     -42593.264      186.24544      186.82867      694.52189    
     59300  -42845.534      270.76209     -42574.772      186.22708      186.8103       694.78984    
     59400  -42825.417      272.71729     -42552.699      186.20575      186.79025      695.05779    
     59500  -42802.611      276.79386     -42525.817      186.18616      186.77298      695.32573    
     59600  -42773.693      276.06672     -42497.626      186.16474      186.75402      695.59368    
     59700  -42750.247      280.33889     -42469.908      186.14484      186.73638      695.86163    
     59800  -42729.575      277.68618     -42451.889      186.125        186.71882      696.12958    
     59900  -42703.909      271.64211     -42432.266      186.10452      186.70011      696.39753    
     60000  -42685.609      275.11615     -42410.493      186.08608      186.68324      696.66548    
     60100  -42661.866      273.54591     -42388.321      186.06574      186.66373      696.93342    
     60200  -42637.992      273.40338     -42364.589      186.04811      186.64614      697.20137    
     60300  -42614.027      272.09916     -42341.927      186.02845      186.62567      697.46932    
     60400  -42593.17       272.91334     -42320.256      186.01058      186.60639      697.73727    
     60500  -42568.636      272.24078     -42296.395      185.99278      186.58674      698.00522    
     60600  -42546.45       274.1248      -42272.325      185.97425      186.56592      698.27317    
     60700  -42522.265      271.97909     -42250.286      185.95713      186.54616      698.54111    
     60800  -42499.853      272.07642     -42227.776      185.93851      186.52541      698.80906    
     60900  -42474.775      271.16198     -42203.613      185.92107      186.50587      699.07701    
     61000  -42453.866      273.94319     -42179.923      185.90312      186.48596      699.34496    
     61100  -42434.032      276.82807     -42157.204      185.88424      186.46639      699.61291    
     61200  -42408.877      275.23634     -42133.641      185.86619      186.44864      699.88085    
     61300  -42377.861      270.61565     -42107.245      185.84594      186.42936      700.1488     
     61400  -42355.482      277.69265     -42077.79       185.82736      186.41241      700.41675    
     61500  -42326.606      276.15191     -42050.455      185.80624      186.3936       700.6847     
     61600  -42304.834      273.4591      -42031.375      185.78681      186.37688      700.95265    
     61700  -42282.386      273.336       -42009.05       185.76602      186.35922      701.2206     
     61800  -42260.665      274.56024     -41986.105      185.74486      186.34128      701.48854    
     61900  -42238.055      275.00051     -41963.054      185.72467      186.32415      701.75649    
     62000  -42212.44       273.125       -41939.315      185.70314      186.30526      702.02444    
     62100  -42189.435      273.85613     -41915.579      185.68311      186.28742      702.29239    
     62200  -42164.74       272.60225     -41892.138      185.66251      186.2684       702.56034    
     62300  -42147.138      271.93427     -41875.204      185.64228      186.24888      702.82829    
     62400  -42121.482      273.72868     -41847.754      185.62343      186.22973      703.09623    
     62500  -42087.578      271.73457     -41815.843      185.60316      186.20845      703.36418    
     62600  -42067.159      280.13243     -41787.027      185.5852       186.18883      703.63213    
     62700  -42039.331      274.12882     -41765.202      185.5656       186.16665      703.90008    
     62800  -42020.072      277.654       -41742.418      185.54743      186.14533      704.16803    
     62900  -41992.657      276.00666     -41716.651      185.52894      186.12365      704.43598    
     63000  -41969.492      276.07396     -41693.418      185.50949      186.10089      704.70392    
     63100  -41944.885      275.12809     -41669.757      185.49176      186.07955      704.97187    
     63200  -41919.152      275.58473     -41643.567      185.47182      186.0562       705.23982    
     63300  -41896.055      277.0349      -41619.02       185.45365      186.03516      705.50777    
     63400  -41871.405      277.15886     -41594.246      185.4341       186.013        705.77572    
     63500  -41847.305      278.46124     -41568.844      185.41419      185.99123      706.04366    
     63600  -41817.587      272.73703     -41544.85       185.39537      185.97168      706.31161    
     63700  -41796.126      275.7006      -41520.426      185.37434      185.95074      706.57956    
     63800  -41771.46       276.22592     -41495.234      185.35523      185.93193      706.84751    
     63900  -41745.731      276.43128     -41469.3        185.33412      185.91237      707.11546    
     64000  -41716.949      273.55114     -41443.398      185.31356      185.89402      707.38341    
     64100  -41689.561      272.34712     -41417.214      185.29307      185.87562      707.65135    
     64200  -41667.399      276.85592     -41390.543      185.27115      185.85632      707.9193     
     64300  -41642.634      278.04434     -41364.59       185.25151      185.83921      708.18725    
     64400  -41612.103      271.88327     -41340.22       185.22959      185.81924      708.4552     
     64500  -41588.548      273.57015     -41314.978      185.20932      185.80102      708.72315    
     64600  -41567.222      278.46494     -41288.757      185.18878      185.78228      708.9911     
     64700  -41539.451      275.95817     -41263.493      185.16779      185.76226      709.25904    
     64800  -41512.066      275.61918     -41236.447      185.14902      185.74438      709.52699    
     64900  -41483.035      273.80124     -41209.233      185.12791      185.72356      709.79494    
     65000  -41460.86       277.61509     -41183.245      185.11009      185.70539      710.06289    
     65100  -41429.584      272.61159     -41156.973      185.09061      185.68503      710.33084    
     65200  -41408.02       277.48962     -41130.53       185.0718       185.66522      710.59879    
     65300  -41382.131      277.86851     -41104.262      185.05445      185.64613      710.86673    
     65400  -41351.643      274.85726     -41076.786      185.03464      185.62441      711.13468    
     65500  -41328.544      279.85466     -41048.69       185.01809      185.60596      711.40263    
     65600  -41296.887      275.74088     -41021.146      184.99844      185.5842       711.67058    
     65700  -41270.241      276.40569     -40993.836      184.98038      185.56451      711.93853    
     65800  -41241.793      275.364       -40966.429      184.962        185.54495      712.20647    
     65900  -41213.776      274.1141      -40939.662      184.94175      185.52373      712.47442    
     66000  -41189.844      277.1296      -40912.715      184.92416      185.50564      712.74237    
     66100  -41165.493      279.89673     -40885.597      184.90332      185.48539      713.01032    
     66200  -41135.057      277.25289     -40857.804      184.88381      185.46646      713.27827    
     66300  -41108.278      278.38331     -40829.894      184.86489      185.44846      713.54622    
     66400  -41075.973      274.25729     -40801.716      184.84329      185.42839      713.81416    
     66500  -41045.755      272.88911     -40772.866      184.82439      185.411        714.08211    
     66600  -41018.913      275.06637     -40743.846      184.80331      185.3916       714.35006    
     66700  -40988.765      273.98903     -40714.776      184.78278      185.37279      714.61801    
     66800  -40962.929      276.36325     -40686.566      184.76304      185.3547       714.88596    
     66900  -40934.838      276.20297     -40658.635      184.74166      185.33464      715.15391    
     67000  -40907.616      277.47631     -40630.139      184.72227      185.31625      715.42185    
     67100  -40881.3        279.45192     -40601.848      184.70207      185.29641      715.6898     
     67200  -40852.192      278.44038     -40573.751      184.68248      185.27696      715.95775    
     67300  -40821.25       275.83146     -40545.419      184.66407      185.2579       716.2257     
     67400  -40792.33       275.11367     -40517.217      184.64492      185.2375       716.49365    
     67500  -40764.878      277.98177     -40486.896      184.62716      185.21847      716.7616     
     67600  -40736.12       278.17222     -40457.948      184.60955      185.19876      717.02954    
     67700  -40707.115      278.41997     -40428.695      184.59134      185.17842      717.29749    
     67800  -40673.452      275.00574     -40398.446      184.57483      185.16022      717.56544    
     67900  -40644.731      276.39531     -40368.336      184.55621      185.13929      717.83339    
     68000  -40614.726      276.9997      -40337.726      184.5399       185.12089      718.10134    
     68100  -40583.426      276.34253     -40307.084      184.5218       185.10128      718.36928    
     68200  -40555.394      278.31211     -40277.082      184.50408      185.08194      718.63723    
     68300  -40527.382      280.28255     -40247.099      184.48746      185.06388      718.90518    
     68400  -40492.272      274.481       -40217.791      184.46857      185.04426      719.17313    
[...]
     81600  -49913.985      357.21231     -49556.773      183.32892      183.80305      754.5423     
     81700  -50069.756      355.15524     -49714.601      183.34043      183.81235      754.81025    
     81800  -50222.568      352.65096     -49869.917      183.35185      183.82155      755.0782     
     81900  -50372.877      349.95919     -50022.917      183.36319      183.83066      755.34614    
     82000  -50522.341      348.59235     -50173.749      183.37441      183.83969      755.61409    
     82100  -50666.114      343.84997     -50322.264      183.38554      183.84866      755.88204    
     82200  -50800.909      336.40946     -50464.5        183.39683      183.85785      756.14999    
     82300  -50927.313      329.12643     -50598.186      183.40809      183.86704      756.41794    
     82400  -51046.225      322.59569     -50723.629      183.41948      183.87641      756.68589    
     82500  -51157.299      316.07867     -50841.221      183.43091      183.88586      756.95383    
     82600  -51260.837      309.69522     -50951.142      183.44239      183.89541      757.22178    
     82700  -51357.249      303.79114     -51053.458      183.45401      183.90512      757.48973    
     82800  -51446.225      298.11093     -51148.114      183.4657       183.91493      757.75768    
     82900  -51527.699      292.70701     -51234.992      183.47755      183.92494      758.02563    
     83000  -51601.465      287.55921     -51313.906      183.48956      183.93511      758.29358    
     83100  -51667.297      282.70866     -51384.588      183.50173      183.94548      758.56152    
     83200  -51725.02       278.35641     -51446.664      183.51414      183.95611      758.82947    
     83300  -51774.113      274.49214     -51499.621      183.52677      183.96697      759.09742    
     83400  -51814.054      271.30138     -51542.753      183.53968      183.97814      759.36537    
     83500  -51844.481      269.32008     -51575.161      183.55277      183.98952      759.63332    
     83600  -51867.158      270.14396     -51597.014      183.56572      184.00082      759.90127    
     83700  -51881.365      270.61666     -51610.748      183.57881      184.01229      760.16921    
     83800  -51886.917      269.42566     -51617.491      183.59189      184.02382      760.43716    
     83900  -51883.474      268.14644     -51615.327      183.60491      184.0353       760.70511    
     84000  -51869.979      267.85906     -51602.12       183.61757      184.04642      760.97306    
     84100  -51844.927      267.09774     -51577.829      183.6301       184.05742      761.24101    
     84200  -51806.993      264.04506     -51542.948      183.64236      184.06816      761.50895    
     84300  -51755.386      258.70514     -51496.681      183.65444      184.07878      761.7769     
     84400  -51690.866      252.0923      -51438.774      183.66639      184.08926      762.04485    
     84500  -51615.97       244.4321      -51371.538      183.67828      184.09967      762.3128     
     84600  -51527.902      229.72289     -51298.179      183.69001      184.10988      762.58075    
     84700  -51428.173      207.92693     -51220.246      183.70162      184.11997      762.8487     
     84800  -51320.298      178.72469     -51141.573      183.7131       184.12991      763.11664    
     84900  -51209.714      140.72305     -51068.991      183.72456      184.13966      763.38459    
     85000  -51109.391      98.825849     -51010.565      183.73594      184.14919      763.65254    
     85100  -51081.976      117.81218     -50964.164      183.74619      184.15782      763.92049    
     85200  -51091.364      212.8274      -50878.536      183.73769      184.14824      764.18844    
     85300  -51149.006      334.49688     -50814.509      183.76456      184.17416      764.45639    
     85400  -51224.316      328.78729     -50895.528      183.76258      184.17233      764.72433    
     85500  -51296.472      289.72987     -51006.742      183.7757       184.17957      764.99228    
     85600  -51339.738      263.26816     -51076.47       183.79449      184.19518      765.26023    
     85700  -51364.228      254.34824     -51109.88       183.80505      184.20692      765.52818    
     85800  -51370.726      265.11347     -51105.613      183.82038      184.22017      765.79613    
     85900  -51360.134      284.33289     -51075.802      183.83216      184.22688      766.06408    
     86000  -51376.83       310.51865     -51066.312      183.85118      184.24182      766.33202    
     86100  -51407.109      290.00811     -51117.101      183.87047      184.25539      766.59997    
     86200  -51442.068      264.73613     -51177.332      183.89242      184.27078      766.86792    
     86300  -51461.094      253.60202     -51207.492      183.91818      184.28775      767.13587    
     86400  -51459.037      260.44227     -51198.595      183.94091      184.29896      767.40382    
     86500  -51448.718      281.1836      -51167.535      183.96708      184.30868      767.67176    
     86600  -51444.23       293.04127     -51151.188      183.98767      184.31544      767.93971    
     86700  -51461.507      288.83        -51172.677      184.00432      184.3227       768.20766    
     86800  -51493.501      274.51703     -51218.984      184.02192      184.33481      768.47561    
     86900  -51518.48       260.08942     -51258.39       184.03682      184.34919      768.74356    
     87000  -51535.707      265.83963     -51269.867      184.05208      184.36731      769.01151    
     87100  -51541.34       276.5771      -51264.762      184.06471      184.38351      769.27945    
     87200  -51548.303      284.0726      -51264.231      184.07816      184.40432      769.5474     
     87300  -51564.049      282.65617     -51281.393      184.08933      184.4243       769.81535    
     87400  -51586.822      274.19958     -51312.623      184.09938      184.44386      770.0833     
     87500  -51601.085      262.64121     -51338.443      184.10882      184.46083      770.35125    
     87600  -51608.988      266.27322     -51342.715      184.12206      184.47778      770.6192     
     87700  -51608.563      277.88564     -51330.678      184.13541      184.48939      770.88714    
     87800  -51611.388      286.97608     -51324.412      184.15146      184.50026      771.15509    
     87900  -51626.706      284.0963      -51342.61       184.16734      184.50978      771.42304    
     88000  -51651.706      275.31329     -51376.393      184.18469      184.51686      771.69099    
     88100  -51665.038      262.61928     -51402.418      184.20208      184.52226      771.95894    
     88200  -51663.46       258.62792     -51404.832      184.21826      184.52899      772.22689    
     88300  -51660.579      276.12953     -51384.449      184.23273      184.53545      772.49483    
     88400  -51649.059      284.21069     -51364.849      184.24559      184.54265      772.76278    
     88500  -51642.268      278.89122     -51363.377      184.25652      184.55297      773.03073    
     88600  -51647.092      273.84038     -51373.251      184.26473      184.56311      773.29868    
     88700  -51644.878      266.87522     -51378.002      184.27205      184.57345      773.56663    
     88800  -51641.273      272.05839     -51369.215      184.27663      184.58482      773.83457    
     88900  -51628.281      274.71936     -51353.562      184.27879      184.59541      774.10252    
     89000  -51621.722      280.75765     -51340.964      184.28019      184.60832      774.37047    
     89100  -51619.648      278.47739     -51341.17       184.28319      184.62318      774.63842    
     89200  -51622.275      273.01103     -51349.264      184.28679      184.63642      774.90637    
     89300  -51621.966      268.08896     -51353.877      184.2948       184.65157      775.17432    
     89400  -51618.448      271.2806      -51347.167      184.30459      184.66457      775.44226    
     89500  -51618.079      281.11303     -51336.966      184.31903      184.67852      775.71021    
     89600  -51615.508      278.81788     -51336.69       184.33561      184.69272      775.97816    
     89700  -51615.437      270.9477      -51344.489      184.35181      184.70762      776.24611    
     89800  -51618.596      272.48976     -51346.107      184.36856      184.72318      776.51406    
     89900  -51619.571      278.10034     -51341.471      184.38218      184.73952      776.78201    
     90000  -51620.954      278.91115     -51342.043      184.39413      184.75374      777.04995    
     90100  -51633.446      280.00902     -51353.437      184.40568      184.76636      777.3179     
     90200  -51645.435      271.56011     -51373.875      184.42104      184.77879      777.58585    
     90300  -51660.025      269.87179     -51390.153      184.43531      184.78819      777.8538     
     90400  -51666.766      268.71578     -51398.051      184.45031      184.79556      778.12175    
     90500  -51671.105      272.62613     -51398.479      184.46939      184.80434      778.3897     
     90600  -51668.242      273.29918     -51394.943      184.48573      184.80808      778.65764    
     90700  -51664.477      274.03428     -51390.442      184.50433      184.81414      778.92559    
     90800  -51654.272      270.67244     -51383.599      184.52278      184.82301      779.19354    
     90900  -51644.176      272.23767     -51371.939      184.53685      184.83148      779.46149    
     91000  -51639.284      277.66616     -51361.618      184.55024      184.84371      779.72944    
     91100  -51634.304      274.35697     -51359.947      184.56309      184.85857      779.99738    
     91200  -51620.69       262.30593     -51358.384      184.5729       184.87283      780.26533    
     91300  -51604.425      264.46729     -51339.957      184.58528      184.89115      780.53328    
     91400  -51588.48       278.84653     -51309.633      184.59854      184.90655      780.80123    
     91500  -51569.426      281.26544     -51288.16       184.61531      184.9219       781.06918    
     91600  -51565.185      281.10805     -51284.077      184.63588      184.93862      781.33713    
     91700  -51563.128      271.48011     -51291.648      184.65956      184.9552       781.60507    
     91800  -51561.946      267.30863     -51294.638      184.68468      184.96954      781.87302    
     91900  -51558.33       272.71209     -51285.618      184.71226      184.98538      782.14097    
     92000  -51560.97       285.77541     -51275.194      184.74148      185.00296      782.40892    
     92100  -51567.964      289.18765     -51278.776      184.76987      185.02153      782.67687    
     92200  -51587.803      283.54322     -51304.259      184.79882      185.03894      782.94482    
     92300  -51603.478      268.1231      -51335.355      184.82587      185.06232      783.21276    
     92400  -51612.356      262.94494     -51349.411      184.8505       185.08867      783.48071    
     92500  -51610.537      270.81961     -51339.718      184.86996      185.1166       783.74866    
     92600  -51604.88       282.80407     -51322.076      184.88862      185.14608      784.01661    
     92700  -51607.342      286.65807     -51320.684      184.90412      185.1725       784.28456    
     92800  -51613.998      275.24528     -51338.753      184.92108      185.20085      784.55251    
     92900  -51625.556      267.04778     -51358.508      184.93657      185.226        784.82045    
     93000  -51628.031      264.5255      -51363.505      184.95088      185.24715      785.0884     
     93100  -51624.587      272.3486      -51352.239      184.96755      185.26867      785.35635    
     93200  -51613.721      278.53607     -51335.185      184.98235      185.28762      785.6243     
     93300  -51606.693      280.21776     -51326.476      184.99801      185.30559      785.89225    
     93400  -51603.355      274.33065     -51329.025      185.01749      185.32546      786.16019    
     93500  -51604.044      271.90735     -51332.136      185.03336      185.34566      786.42814    
     93600  -51603.027      273.19719     -51329.83       185.04544      185.36789      786.69609    
     93700  -51599.379      275.95641     -51323.422      185.05138      185.39066      786.96404    
     93800  -51601.327      280.24772     -51321.079      185.04977      185.41156      787.23199    
     93900  -51603.176      275.30913     -51327.867      185.04857      185.43525      787.49994    
     94000  -51611.268      273.98726     -51337.281      185.0443       185.45072      787.76788    
     94100  -51616.147      273.09383     -51343.054      185.04151      185.46269      788.03583    
     94200  -51617.354      272.84086     -51344.513      185.04535      185.47463      788.30378    
     94300  -51634.298      285.00754     -51349.291      185.05047      185.48099      788.57173    
     94400  -51646.33       278.94285     -51367.387      185.06231      185.48625      788.83968    
     94500  -51661.572      269.46681     -51392.105      185.07917      185.49033      789.10763    
     94600  -51673.308      266.25874     -51407.049      185.09617      185.4915       789.37557    
     94700  -51676.244      270.49234     -51405.752      185.12093      185.49436      789.64352    
     94800  -51677.466      279.67597     -51397.79       185.14571      185.49854      789.91147    
     94900  -51675.111      278.18797     -51396.923      185.17008      185.50414      790.17942    
     95000  -51671.169      269.79469     -51401.375      185.19637      185.51639      790.44737    
     95100  -51666.97       268.20421     -51398.765      185.21835      185.52973      790.71532    
     95200  -51658.989      274.87582     -51384.113      185.24018      185.54763      790.98326    
     95300  -51649.99       280.29688     -51369.693      185.25996      185.56938      791.25121    
     95400  -51645.477      279.02025     -51366.457      185.27827      185.5911       791.51916    
     95500  -51645.223      271.44659     -51373.776      185.2969       185.61294      791.78711    
     95600  -51640.513      265.4977      -51375.015      185.31731      185.63278      792.05506    
     95700  -51638.751      274.77946     -51363.972      185.33744      185.64857      792.323      
     95800  -51627.507      275.70823     -51351.798      185.36058      185.66293      792.59095    
     95900  -51626.13       279.13773     -51346.993      185.38531      185.67534      792.8589     
     96000  -51615.736      269.79555     -51345.94       185.40701      185.68669      793.12685    
     96100  -51608.495      270.39118     -51338.104      185.43139      185.70101      793.3948     
     96200  -51602.761      279.24606     -51323.514      185.4571       185.71681      793.66275    
     96300  -51597.06       280.46819     -51316.592      185.48016      185.73551      793.93069    
     96400  -51602.374      279.15645     -51323.217      185.5026       185.76246      794.19864    
     96500  -51610.266      271.76791     -51338.498      185.5233       185.79565      794.46659    
     96600  -51609.679      262.53914     -51347.14       185.54107      185.8309       794.73454    
     96700  -51611.06       271.77475     -51339.286      185.55989      185.87381      795.00249    
     96800  -51602.307      279.98749     -51322.319      185.57722      185.92292      795.27044    
     96900  -51597.758      283.86007     -51313.898      185.59306      185.97511      795.53838    
     97000  -51606.426      281.15677     -51325.269      185.61198      186.03244      795.80633    
     97100  -51617.376      269.61636     -51347.76       185.63267      186.08939      796.07428    
     97200  -51625.081      262.56859     -51362.512      185.65517      186.14568      796.34223    
     97300  -51625.548      267.67845     -51357.87       185.68081      186.20103      796.61018    
     97400  -51617.064      275.8055      -51341.258      185.70923      186.25411      796.87813    
     97500  -51604.737      279.7717      -51324.966      185.73647      186.30471      797.14607    
     97600  -51600.742      283.31352     -51317.428      185.76579      186.35566      797.41402    
     97700  -51604.63       278.0419      -51326.588      185.79463      186.4019       797.68197    
     97800  -51608.462      266.48795     -51341.974      185.824        186.44476      797.94992    
     97900  -51615.003      266.4081      -51348.595      185.85261      186.48513      798.21787    
     98000  -51614.488      271.45325     -51343.035      185.87979      186.52         798.48581    
     98100  -51610.799      277.43631     -51333.362      185.90516      186.55198      798.75376    
     98200  -51614.836      282.49977     -51332.336      185.92807      186.57859      799.02171    
     98300  -51615.873      275.1285      -51340.744      185.94874      186.60258      799.28966    
     98400  -51622.717      272.44953     -51350.268      185.96728      186.62198      799.55761    
     98500  -51623.184      270.83427     -51352.35       185.98698      186.64072      799.82556    
     98600  -51622.761      274.17184     -51348.589      186.00584      186.65627      800.0935     
     98700  -51625.807      278.85606     -51346.951      186.02692      186.66962      800.36145    
     98800  -51633.589      279.58791     -51354.001      186.04911      186.68024      800.6294     
     98900  -51639.628      271.03062     -51368.598      186.07157      186.68595      800.89735    
     99000  -51648.281      269.95247     -51378.328      186.09624      186.69013      801.1653     
     99100  -51649.541      272.0495      -51377.492      186.12384      186.69155      801.43325    
     99200  -51644.373      274.27821     -51370.095      186.15088      186.69052      801.70119    
     99300  -51638.468      275.75592     -51362.712      186.18029      186.69107      801.96914    
     99400  -51637.008      276.86639     -51360.142      186.21166      186.69253      802.23709    
     99500  -51635.906      273.03139     -51362.874      186.24206      186.69652      802.50504    
     99600  -51637.941      272.33873     -51365.602      186.27257      186.70607      802.77299    
     99700  -51642.714      275.35601     -51367.358      186.30034      186.71928      803.04094    
     99800  -51644.028      275.98422     -51368.043      186.32366      186.73757      803.30888    
     99900  -51644.292      276.19339     -51368.099      186.34411      186.76192      803.57683    
    100000  -51639.484      272.70265     -51366.781      186.36141      186.7893       803.84478    
Loop time of 35779.6 on 16 procs for 100000 steps with 7072 atoms

Performance: 0.241 ns/day, 99.388 hours/ns, 2.795 timesteps/s, 19.765 katom-step/s
47.3% CPU use with 16 MPI tasks x 1 OpenMP threads

MPI task timing breakdown:
Section |  min time  |  avg time  |  max time  |%varavg| %total
---------------------------------------------------------------
Pair    | 815.36     | 963.88     | 1143.9     | 272.1 |  2.69
Neigh   | 2.857      | 3.8632     | 5.3279     |  39.9 |  0.01
Comm    | 5032.9     | 5519.9     | 6009.7     | 381.9 | 15.43
Output  | 115.06     | 118.58     | 122.96     |  20.8 |  0.33
Modify  | 25324      | 25814      | 26159      | 167.8 | 72.15
Other   |            | 3360       |            |       |  9.39

Nlocal:            442 ave         827 max         215 min
Histogram: 2 5 1 1 3 0 1 2 0 1
Nghost:        1500.44 ave        2528 max         836 min
Histogram: 4 4 0 0 1 3 0 0 2 2
Neighs:              0 ave           0 max           0 min
Histogram: 16 0 0 0 0 0 0 0 0 0

Total # of neighbors = 0
Ave neighs/atom = 0
Neighbor list builds = 581
Dangerous builds = 0
Total wall time: 9:56:33
