LAMMPS (2 Aug 2023 - Update 3)
OMP_NUM_THREADS environment is not set. Defaulting to 1 thread. (src/comm.cpp:98)
  using 1 OpenMP thread(s) per MPI task
Reading data file ...
  orthogonal box = (-100 -100 -2.331251) to (100 100 38.891558)
  3 by 4 by 1 MPI processor grid
  reading atoms ...
  920 atoms
  read_data CPU = 0.005 seconds
Replication is creating a 1x1x19 = 19 times larger system...
  orthogonal box = (-100 -100 -2.331251) to (100 100 780.90212)
  1 by 2 by 6 MPI processor grid
  17480 atoms
  replicate CPU = 0.002 seconds
System init for write_data ...
WARNING: Communication cutoff is 0.0. No ghost atoms will be generated. Atoms may get lost. (src/comm_brick.cpp:210)
Reading airebo potential file CH.airebo with DATE: 2011-10-25
Reading airebo potential file CH.airebo with DATE: 2011-10-25
Neighbor list info ...
  update: every = 1 steps, delay = 0 steps, check = yes
  max neighbors/atom: 2000, page size: 100000
  master list distance cutoff = 13.2
  ghost atom cutoff = 13.2
  binsize = 6.6, bins = 31 31 119
  5 neighbor lists, perpetual/occasional/extra = 5 0 0
  (1) pair airebo, perpetual, skip from (4)
      attributes: full, newton on, ghost
      pair build: skip/ghost
      stencil: none
      bin: none
  (2) pair airebo, perpetual, skip from (4)
      attributes: full, newton on, ghost
      pair build: skip/ghost
      stencil: none
      bin: none
  (3) pair lj/cut, perpetual, skip from (5)
      attributes: half, newton on, cut 13
      pair build: skip
      stencil: none
      bin: none
  (4) neighbor class addition, perpetual
      attributes: full, newton on, ghost
      pair build: full/bin/ghost
      stencil: full/ghost/bin/3d
      bin: standard
  (5) neighbor class addition, perpetual
      attributes: half, newton on, cut 13
      pair build: half/bin/atomonly/newton
      stencil: half/bin/3d
      bin: standard
Setting up sd style minimization ...
  Unit style    : metal
  Current step  : 0
Per MPI rank memory allocation (min/avg/max) = 13.79 | 13.79 | 13.79 Mbytes
   Step          Temp          E_pair         E_mol          TotEng         Press     
         0   0             -126737.42      0             -126737.42      322.36972    
         4   0             -127071.26      0             -127071.26      67.774962    
Loop time of 0.236777 on 12 procs for 4 steps with 17480 atoms

99.5% CPU use with 12 MPI tasks x 1 OpenMP threads

Minimization stats:
  Stopping criterion = energy tolerance
  Energy initial, next-to-last, final = 
      -126737.41929089  -127063.572416381  -127071.256859054
  Force two-norm initial, final = 190.18276 28.957417
  Force max component initial, final = 3.4211508 0.48894053
  Final line search alpha, max atom move = 0.14095332 0.068917792
  Iterations, force evaluations = 4 8

MPI task timing breakdown:
Section |  min time  |  avg time  |  max time  |%varavg| %total
---------------------------------------------------------------
Pair    | 0.2242     | 0.22955    | 0.23394    |   0.6 | 96.95
Neigh   | 0          | 0          | 0          |   0.0 |  0.00
Comm    | 0.0015528  | 0.0051405  | 0.010316   |   3.9 |  2.17
Output  | 0          | 0          | 0          |   0.0 |  0.00
Modify  | 0          | 0          | 0          |   0.0 |  0.00
Other   |            | 0.002084   |            |       |  0.88

Nlocal:        1456.67 ave        1514 max        1401 min
Histogram: 6 0 0 0 0 0 0 0 0 6
Nghost:        2043.33 ave        2108 max        1975 min
Histogram: 2 4 0 0 0 0 0 0 2 4
Neighs:              0 ave           0 max           0 min
Histogram: 12 0 0 0 0 0 0 0 0 0

Total # of neighbors = 0
Ave neighs/atom = 0
Neighbor list builds = 0
Dangerous builds = 0
Setting up Verlet run ...
  Unit style    : metal
  Current step  : 4
  Time step     : 0.001
Per MPI rank memory allocation (min/avg/max) = 14.41 | 14.41 | 14.42 Mbytes
   Step          Temp          E_pair         E_mol          TotEng         Press          Volume    
         4   300           -127071.26      0             -126393.46      90.883389      31329335     
Loop time of 3.83002e-05 on 12 procs for 0 steps with 17480 atoms

88.8% CPU use with 12 MPI tasks x 1 OpenMP threads

MPI task timing breakdown:
Section |  min time  |  avg time  |  max time  |%varavg| %total
---------------------------------------------------------------
Pair    | 0          | 0          | 0          |   0.0 |  0.00
Neigh   | 0          | 0          | 0          |   0.0 |  0.00
Comm    | 0          | 0          | 0          |   0.0 |  0.00
Output  | 0          | 0          | 0          |   0.0 |  0.00
Modify  | 0          | 0          | 0          |   0.0 |  0.00
Other   |            | 3.83e-05   |            |       |100.00

Nlocal:        1456.67 ave        1460 max        1453 min
Histogram: 2 0 3 0 0 3 0 1 0 3
Nghost:           2043 ave        2056 max        2029 min
Histogram: 4 0 0 0 0 4 0 0 0 4
Neighs:              0 ave           0 max           0 min
Histogram: 12 0 0 0 0 0 0 0 0 0

Total # of neighbors = 0
Ave neighs/atom = 0
Neighbor list builds = 0
Dangerous builds = 0
WARNING: New thermo_style command, previous thermo_modify settings will be lost (src/output.cpp:903)
WARNING: Dump 2 includes no atom IDs and is not sorted by ID. This may complicate post-processing tasks or visualization (src/dump.cpp:221)
Setting up Verlet run ...
  Unit style    : metal
  Current step  : 0
  Time step     : 0.001
Per MPI rank memory allocation (min/avg/max) = 15.91 | 15.91 | 15.92 Mbytes
   Step         PotEng         KinEng         TotEng           Lx             Ly             Lz      
         0  -127071.26      677.80142     -126393.46      200            200            783.23337    
       100  -126677.96      330.86159     -126347.1       200.00408      200.006        783.62499    
       200  -126711.26      425.86396     -126285.4       199.99981      200.00462      784.0166     
       300  -126649.42      437.81066     -126211.61      200.00157      200.0101       784.40822    
       400  -126609.18      477.76758     -126131.41      199.99929      200.01066      784.79984    
       500  -126579.54      532.78397     -126046.75      199.99887      200.01191      785.19145    
       600  -126536.03      574.86324     -125961.16      200.00173      200.01448      785.58307    
       700  -126505.43      626.80012     -125878.63      199.99842      200.01052      785.97469    
       800  -126461.35      657.67887     -125803.67      200.00363      200.01571      786.3663     
       900  -126445.73      701.90705     -125743.82      199.99776      200.01124      786.75792    
      1000  -126416.85      708.52788     -125708.32      200.00055      200.01762      787.14954    
      1100  -126413.15      704.43527     -125708.72      199.99342      200.01517      787.54115    
      1200  -126424.43      686.42042     -125738.01      199.99416      200.02033      787.93277    
      1300  -126436.29      673.77152     -125762.52      199.98924      200.01719      788.32439    
      1400  -126421.1       660.38823     -125760.71      199.99069      200.01881      788.716      
      1500  -126410.35      674.84461     -125735.5       199.98736      200.01507      789.10762    
      1600  -126383.3       673.84651     -125709.45      199.98778      200.01691      789.49924    
      1700  -126391.05      687.42804     -125703.62      199.98186      200.01371      789.89085    
      1800  -126382.52      663.50135     -125719.02      199.98169      200.01774      790.28247    
      1900  -126403.36      667.40682     -125735.95      199.973        200.01339      790.67409    
      2000  -126391.25      654.79708     -125736.45      199.97437      200.01822      791.0657     
      2100  -126389.64      670.78779     -125718.86      199.96586      200.01126      791.45732    
      2200  -126372.03      677.61332     -125694.42      199.96873      200.01402      791.84894    
      2300  -126373.74      690.21504     -125683.52      199.96092      200.00706      792.24055    
      2400  -126373.23      680.50725     -125692.72      199.96142      200.00884      792.63217    
      2500  -126386.92      680.07058     -125706.85      199.95324      200.00445      793.02379    
      2600  -126384.36      674.1702      -125710.19      199.95019      200.00591      793.4154     
      2700  -126382.07      685.91582     -125696.15      199.94258      200.00321      793.80702    
      2800  -126363.77      689.72154     -125674.05      199.93871      200.00283      794.19864    
      2900  -126354.35      693.37406     -125660.98      199.93346      199.99866      794.59025    
      3000  -126350.77      688.38887     -125662.38      199.93031      199.9959       794.98187    
      3100  -126354.12      682.14427     -125671.98      199.92514      199.99074      795.37349    
      3200  -126351.97      676.49229     -125675.48      199.9205       199.98885      795.7651     
      3300  -126340.7       675.76188     -125664.94      199.9133       199.98522      796.15672    
      3400  -126329.29      683.50491     -125645.78      199.90719      199.984        796.54834    
      3500  -126311.93      682.67274     -125629.25      199.89971      199.98029      796.93995    
      3600  -126303.67      678.26282     -125625.41      199.89379      199.97689      797.33157    
      3700  -126300.55      669.76821     -125630.78      199.88793      199.9722       797.72319    
      3800  -126303.87      667.86298     -125636.01      199.88158      199.96657      798.11481    
      3900  -126296.91      665.52826     -125631.38      199.87567      199.96233      798.50642    
      4000  -126293.87      678.40624     -125615.46      199.86773      199.95755      798.89804    
      4100  -126277.71      679.74523     -125597.97      199.85965      199.95394      799.28966    
      4200  -126271.59      683.90628     -125587.68      199.85147      199.94964      799.68127    
      4300  -126261.01      673.49711     -125587.51      199.84325      199.94434      800.07289    
      4400  -126263         671.71614     -125591.28      199.83605      199.93876      800.46451    
      4500  -126258.66      669.97263     -125588.69      199.82797      199.93188      800.85612    
      4600  -126257.99      681.83931     -125576.15      199.82038      199.92646      801.24774    
      4700  -126244.53      686.38586     -125558.14      199.81042      199.92023      801.63936    
      4800  -126234.14      689.10427     -125545.03      199.80141      199.91565      802.03097    
      4900  -126222.58      679.44188     -125543.14      199.79105      199.9085       802.42259    
      5000  -126225.76      680.33161     -125545.43      199.78324      199.90229      802.81421    
      5100  -126223.21      680.53033     -125542.68      199.77295      199.89334      803.20582    
      5200  -126207.82      677.57203     -125530.25      199.76501      199.88748      803.59744    
      5300  -126199.94      686.82277     -125513.11      199.75255      199.87885      803.98906    
      5400  -126177.13      679.02164     -125498.11      199.74334      199.87396      804.38067    
      5500  -126173.18      682.32884     -125490.85      199.7304       199.86491      804.77229    
      5600  -126167.37      677.51805     -125489.85      199.72093      199.85859      805.16391    
      5700  -126165.97      677.08898     -125488.88      199.70872      199.84797      805.55552    
      5800  -126147.94      667.07223     -125480.87      199.69951      199.84018      805.94714    
      5900  -126146.21      681.12978     -125465.08      199.68631      199.82918      806.33876    
      6000  -126124.89      678.32856     -125446.56      199.67587      199.82196      806.73037    
      6100  -126116.4       681.9919      -125434.41      199.66133      199.81089      807.12199    
      6200  -126106.53      675.40143     -125431.12      199.64977      199.80349      807.51361    
      6300  -126102.59      671.65839     -125430.93      199.63462      199.79205      807.90522    
      6400  -126090.87      665.46161     -125425.41      199.62312      199.7831       808.29684    
      6500  -126091.67      680.89484     -125410.78      199.60848      199.77072      808.68846    
      6600  -126070.63      679.18078     -125391.45      199.59663      199.76063      809.08007    
      6700  -126057.88      681.4821      -125376.39      199.58159      199.74807      809.47169    
      6800  -126052.35      683.41254     -125368.93      199.56845      199.73769      809.86331    
      6900  -126045.67      679.60981     -125366.06      199.55274      199.72524      810.25492    
      7000  -126033.19      672.32667     -125360.86      199.53781      199.71429      810.64654    
      7100  -126017.7       670.30975     -125347.39      199.52183      199.70211      811.03816    
      7200  -126010.6       683.2007      -125327.4       199.50606      199.68993      811.42977    
      7300  -126000.61      690.3419      -125310.27      199.48996      199.67664      811.82139    
      7400  -125987.53      686.12773     -125301.4       199.47392      199.66277      812.21301    
      7500  -125980.37      682.16835     -125298.2       199.45752      199.64864      812.60462    
      7600  -125969.71      675.86873     -125293.84      199.44012      199.63392      812.99624    
      7700  -125954.48      673.67531     -125280.8       199.4228       199.6199       813.38786    
      7800  -125935.93      675.25814     -125260.68      199.40405      199.60452      813.77947    
      7900  -125925.42      683.86709     -125241.55      199.38614      199.58989      814.17109    
      8000  -125915.13      684.35729     -125230.77      199.36671      199.57351      814.56271    
      8100  -125901.01      674.04667     -125226.96      199.34869      199.55728      814.95432    
      8200  -125898.48      676.20886     -125222.27      199.32913      199.53951      815.34594    
      8300  -125885.3       675.58331     -125209.72      199.31022      199.52314      815.73756    
      8400  -125870.52      679.63262     -125190.89      199.2891       199.50505      816.12917    
      8500  -125849.58      678.08432     -125171.49      199.26924      199.48864      816.52079    
      8600  -125842.33      683.26477     -125159.07      199.2474       199.46965      816.91241    
      8700  -125828.83      676.02169     -125152.81      199.22723      199.45251      817.30402    
      8800  -125817.65      671.92774     -125145.72      199.20427      199.43266      817.69564    
      8900  -125806         672.69311     -125133.31      199.18353      199.41497      818.08726    
      9000  -125787.19      672.62224     -125114.57      199.16021      199.39425      818.47887    
      9100  -125770.38      676.62206     -125093.76      199.13887      199.37552      818.87049    
      9200  -125759.71      680.90349     -125078.8       199.11459      199.35415      819.26211    
      9300  -125745.19      675.54531     -125069.64      199.09249      199.33495      819.65372    
      9400  -125740.36      678.99214     -125061.37      199.06713      199.3128       820.04534    
      9500  -125722.38      672.56917     -125049.81      199.04371      199.29315      820.43696    
      9600  -125707.15      675.67387     -125031.47      199.01753      199.27094      820.82857    
      9700  -125688.61      677.14869     -125011.46      198.99303      199.25003      821.22019    
      9800  -125681.28      685.79446     -124995.49      198.96697      199.22631      821.61181    
      9900  -125659.08      674.26425     -124984.81      198.94215      199.20405      822.00342    
     10000  -125657.76      682.17071     -124975.59      198.91525      199.17993      822.39504    
     10100  -125641.49      677.41639     -124964.07      198.88885      199.15732      822.78666    
     10200  -125624.09      676.71149     -124947.38      198.86023      199.13348      823.17827    
     10300  -125607.18      679.75346     -124927.43      198.83327      199.11018      823.56989    
     10400  -125592.62      684.87727     -124907.74      198.80581      199.08426      823.96151    
     10500  -125573.7       681.05756     -124892.64      198.7787       199.05873      824.35312    
     10600  -125557.8       675.57582     -124882.22      198.75024      199.03297      824.74474    
     10700  -125548.76      677.09039     -124871.67      198.72106      199.0082       825.13636    
     10800  -125533.17      676.81976     -124856.35      198.69008      198.98338      825.52797    
     10900  -125513.61      676.77056     -124836.84      198.66021      198.95833      825.91959    
     11000  -125491.62      675.9844      -124815.63      198.63067      198.93093      826.31121    
     11100  -125478.04      678.77812     -124799.26      198.60267      198.90277      826.70282    
     11200  -125465.89      677.07309     -124788.82      198.57366      198.87385      827.09444    
     11300  -125452.69      674.4552      -124778.24      198.5436       198.84669      827.48606    
     11400  -125433.5       670.73121     -124762.77      198.51135      198.82019      827.87767    
     11500  -125419.29      677.39413     -124741.9       198.47905      198.79463      828.26929    
     11600  -125397.66      680.34799     -124717.31      198.44655      198.76736      828.66091    
     11700  -125377.28      678.8082      -124698.47      198.41609      198.73921      829.05252    
     11800  -125365.59      678.54287     -124687.04      198.38575      198.70907      829.44414    
     11900  -125352.74      674.45267     -124678.28      198.3559       198.67966      829.83576    
     12000  -125337.56      672.13025     -124665.43      198.32334      198.65102      830.22737    
     12100  -125319.64      673.6018      -124646.04      198.29033      198.62477      830.61899    
     12200  -125302.85      681.39621     -124621.45      198.25664      198.59715      831.01061    
     12300  -125278.78      679.66939     -124599.11      198.22492      198.56909      831.40222    
     12400  -125270.18      685.83384     -124584.35      198.19368      198.53937      831.79384    
     12500  -125253.02      678.53573     -124574.48      198.1632       198.50982      832.18546    
     12600  -125234.08      673.51101     -124560.56      198.13164      198.48067      832.57707    
     12700  -125217.85      677.71086     -124540.14      198.09848      198.45351      832.96869    
     12800  -125192         676.18021     -124515.82      198.06481      198.42682      833.36031    
     12900  -125173.21      679.31513     -124493.9       198.03244      198.3992       833.75192    
     13000  -125160.26      683.91947     -124476.34      198.00088      198.37028      834.14354    
     13100  -125138.84      675.68664     -124463.15      197.97064      198.34093      834.53516    
     13200  -125122.5       672.85749     -124449.64      197.93978      198.31139      834.92677    
     13300  -125106.63      675.56663     -124431.07      197.90818      198.28362      835.31839    
     13400  -125085.06      678.53238     -124406.53      197.87533      198.25718      835.71001    
     13500  -125061.44      679.56062     -124381.88      197.84323      198.23101      836.10162    
     13600  -125043.77      682.13515     -124361.64      197.81166      198.20336      836.49324    
     13700  -125034.22      679.71322     -124354.5       197.78233      198.17551      836.88486    
     13800  -125015.81      675.53355     -124340.28      197.75275      198.14681      837.27647    
     13900  -124991.96      674.58121     -124317.38      197.72367      198.12005      837.66809    
     14000  -124970.8       680.1968      -124290.61      197.69243      198.09377      838.05971    
     14100  -124949.6       681.92949     -124267.67      197.66226      198.06981      838.45132    
     14200  -124931.08      681.97458     -124249.11      197.63147      198.04385      838.84294    
     14300  -124910.93      677.75369     -124233.18      197.60391      198.01821      839.23456    
     14400  -124894.67      680.25762     -124214.41      197.57607      197.9906       839.62617    
     14500  -124868.13      673.87866     -124194.26      197.54932      197.96533      840.01779    
     14600  -124854.29      679.52119     -124174.77      197.51997      197.94063      840.40941    
     14700  -124833.13      676.06757     -124157.06      197.49107      197.91843      840.80102    
     14800  -124815.51      675.16684     -124140.34      197.46202      197.89481      841.19264    
     14900  -124796.23      674.22893     -124122         197.43617      197.87084      841.58426    
     15000  -124772.13      677.53421     -124094.6       197.4109       197.84514      841.97587    
     15100  -124750.86      683.78264     -124067.08      197.38687      197.82045      842.36749    
     15200  -124728.34      679.48269     -124048.86      197.36101      197.7969       842.75911    
     15300  -124708.89      675.30753     -124033.58      197.33491      197.77624      843.15072    
     15400  -124694.38      679.12176     -124015.26      197.3074       197.75561      843.54234    
     15500  -124668.73      675.13435     -123993.59      197.28234      197.73574      843.93396    
     15600  -124653.05      682.23456     -123970.81      197.25865      197.71327      844.32557    
     15700  -124623.81      675.3687      -123948.45      197.23709      197.69109      844.71719    
     15800  -124601.5       676.82644     -123924.68      197.21481      197.66937      845.10881    
     15900  -124583.01      682.8798      -123900.13      197.19173      197.65015      845.50042    
     16000  -124559.2       681.23596     -123877.97      197.16771      197.63196      845.89204    
     16100  -124541.57      678.63941     -123862.94      197.1452       197.61335      846.28366    
     16200  -124519.52      672.0675      -123847.45      197.12437      197.59341      846.67527    
     16300  -124497.98      674.93996     -123823.04      197.10485      197.5731       847.06689    
     16400  -124467.39      678.29337     -123789.1       197.08478      197.55396      847.45851    
     16500  -124445.88      679.6128      -123766.27      197.0637       197.53615      847.85012    
     16600  -124422.12      671.66758     -123750.45      197.04222      197.51967      848.24174    
     16700  -124408.49      674.69086     -123733.8       197.02169      197.50268      848.63336    
     16800  -124385.45      673.18527     -123712.27      197.0031       197.4847       849.02497    
     16900  -124361.09      678.48772     -123682.61      196.98534      197.46591      849.41659    
     17000  -124335.65      683.29713     -123652.35      196.96827      197.4481       849.80821    
     17100  -124313.81      679.55233     -123634.26      196.94951      197.43121      850.19982    
     17200  -124300.85      681.87065     -123618.98      196.93083      197.41616      850.59144    
     17300  -124275.17      677.5027      -123597.66      196.91203      197.40086      850.98306    
     17400  -124248.8       675.55132     -123573.25      196.89513      197.38506      851.37467    
     17500  -124226.72      680.22701     -123546.49      196.87901      197.36789      851.76629    
     17600  -124197.44      683.9054      -123513.53      196.86371      197.35234      852.15791    
     17700  -124175.82      683.56531     -123492.25      196.84678      197.33689      852.54952    
     17800  -124158.7       680.14086     -123478.56      196.83027      197.32351      852.94114    
     17900  -124140.6       682.81079     -123457.79      196.81331      197.30937      853.33276    
     18000  -124110.03      675.93993     -123434.09      196.79859      197.29518      853.72437    
     18100  -124089.9       683.24341     -123406.66      196.78461      197.2791       854.11599    
     18200  -124053.72      678.17797     -123375.54      196.77133      197.26406      854.50761    
     18300  -124033.16      682.95512     -123350.21      196.75608      197.25017      854.89922    
     18400  -124015.92      676.88239     -123339.04      196.74056      197.23809      855.29084    
     18500  -123990.67      672.07111     -123318.6       196.72416      197.22571      855.68246    
     18600  -123963.55      671.57306     -123291.98      196.71012      197.2132       856.07407    
     18700  -123944         682.72814     -123261.27      196.69704      197.19821      856.46569    
     18800  -123918.23      684.58408     -123233.65      196.68519      197.18397      856.85731    
     18900  -123895.7       677.82059     -123217.88      196.67173      197.17009      857.24892    
     19000  -123875.75      673.91746     -123201.84      196.65822      197.15838      857.64054    
     19100  -123852.87      677.98662     -123174.88      196.64353      197.14612      858.03216    
     19200  -123820.65      678.42984     -123142.22      196.63053      197.1348       858.42377    
     19300  -123799.22      684.43557     -123114.78      196.61755      197.12121      858.81539    
     19400  -123771.58      679.69348     -123091.89      196.6066       197.10826      859.20701    
     19500  -123742.61      673.40978     -123069.2       196.59386      197.09465      859.59862    
     19600  -123722.92      677.33378     -123045.59      196.58104      197.08397      859.99024    
     19700  -123695.23      669.72959     -123025.5       196.56605      197.07262      860.38186    
     19800  -123670.41      669.58678     -123000.82      196.55373      197.06205      860.77347    
     19900  -123645.13      676.24265     -122968.89      196.54135      197.04797      861.16509    
     20000  -123624.14      685.50707     -122938.64      196.53211      197.03518      861.55671    
     20100  -123594.11      680.55636     -122913.55      196.51994      197.02092      861.94832    
     20200  -123577.82      679.45735     -122898.36      196.50842      197.01093      862.33994    
     20300  -123549.2       671.83962     -122877.36      196.49334      196.99971      862.73156    
     20400  -123525.5       678.67096     -122846.83      196.4818       196.99042      863.12317    
     20500  -123495.03      680.19911     -122814.83      196.46893      196.97739      863.51479    
     20600  -123467.04      679.6544      -122787.39      196.45905      196.96678      863.90641    
     20700  -123444.21      682.04847     -122762.16      196.44635      196.95352      864.29802    
     20800  -123413.63      675.32674     -122738.3       196.43608      196.94376      864.68964    
     20900  -123392.29      673.96082     -122718.33      196.42253      196.93115      865.08126    
     21000  -123370.37      677.60194     -122692.77      196.41208      196.92163      865.47287    
     21100  -123337.22      679.50124     -122657.72      196.39915      196.90862      865.86449    
     21200  -123310.45      683.39397     -122627.05      196.38957      196.89826      866.25611    
     21300  -123282.45      680.55668     -122601.89      196.37679      196.88528      866.64773    
     21400  -123255.15      674.2294      -122580.92      196.36608      196.87583      867.03934    
     21500  -123231.62      665.70659     -122565.91      196.35213      196.86402      867.43096    
     21600  -123212.63      674.48868     -122538.14      196.3409       196.85518      867.82258    
     21700  -123180.49      674.87919     -122505.61      196.32765      196.8429       868.21419    
     21800  -123149.57      676.39636     -122473.17      196.3181       196.83256      868.60581    
     21900  -123120.35      679.00325     -122441.35      196.30591      196.81939      868.99743    
     22000  -123093.57      678.99844     -122414.57      196.29562      196.80962      869.38904    
     22100  -123073.95      678.34141     -122395.61      196.28168      196.79848      869.78066    
     22200  -123043.73      668.14138     -122375.59      196.27048      196.7896       870.17228    
     22300  -123016.47      673.4311      -122343.04      196.25738      196.77752      870.56389    
     22400  -122982.84      673.30944     -122309.53      196.24739      196.76749      870.95551    
     22500  -122959         680.33818     -122278.66      196.23421      196.75515      871.34713    
     22600  -122931.96      681.95462     -122250.01      196.22292      196.74593      871.73874    
     22700  -122903.13      683.25948     -122219.87      196.20912      196.73412      872.13036    
     22800  -122870.35      681.87664     -122188.48      196.19837      196.72403      872.52198    
     22900  -122837.26      675.64011     -122161.62      196.18587      196.71064      872.91359    
     23000  -122822.54      680.28114     -122142.25      196.17554      196.69986      873.30521    
     23100  -122793.57      673.93715     -122119.63      196.16156      196.68728      873.69683    
     23200  -122763.55      673.28253     -122090.27      196.14982      196.67824      874.08844    
     23300  -122732.91      680.89921     -122052.01      196.13532      196.66606      874.48006    
     23400  -122703.14      680.51248     -122022.63      196.12426      196.65593      874.87168    
     23500  -122677.29      679.37852     -121997.91      196.11084      196.64268      875.26329    
     23600  -122654.74      679.82188     -121974.92      196.09988      196.63205      875.65491    
     23700  -122627.79      677.41494     -121950.37      196.08596      196.61943      876.04653    
     23800  -122597.27      677.91647     -121919.36      196.0739       196.60941      876.43814    
     23900  -122561.01      680.61023     -121880.4       196.05987      196.59673      876.82976    
     24000  -122533.35      683.02967     -121850.32      196.04856      196.58599      877.22138    
     24100  -122504.68      678.4185      -121826.26      196.03493      196.57257      877.61299    
     24200  -122478.41      672.55012     -121805.86      196.02305      196.56177      878.00461    
     24300  -122455.47      677.70485     -121777.77      196.00842      196.54925      878.39623    
     24400  -122414.59      679.08149     -121735.51      195.9955       196.53909      878.78784    
     24500  -122383.15      678.58702     -121704.56      195.9804       196.52647      879.17946    
     24600  -122356.8       677.86402     -121678.93      195.968        196.5152       879.57108    
     24700  -122329.19      674.98701     -121654.2       195.9541       196.50059      879.96269    
     24800  -122300.76      673.24867     -121627.51      195.94272      196.48799      880.35431    
     24900  -122270.04      678.597       -121591.44      195.92833      196.47343      880.74593    
     25000  -122232.49      678.15183     -121554.34      195.91486      196.46204      881.13754    
     25100  -122205.68      677.85954     -121527.82      195.89851      196.44921      881.52916    
     25200  -122182.13      677.57486     -121504.56      195.88488      196.43761      881.92078    
     25300  -122151.66      674.20741     -121477.46      195.86993      196.42254      882.31239    
     25400  -122124.18      677.36036     -121446.82      195.85819      196.40887      882.70401    
     25500  -122090.8       675.75984     -121415.04      195.84339      196.39311      883.09563    
     25600  -122061.51      678.95059     -121382.56      195.8297       196.38111      883.48724    
     25700  -122030.62      681.41746     -121349.2       195.81261      196.36709      883.87886    
     25800  -121990.79      679.45689     -121311.34      195.79895      196.35471      884.27048    
     25900  -121971.17      691.51908     -121279.65      195.78339      196.33835      884.66209    
     26000  -121938.51      677.68484     -121260.83      195.77105      196.3243       885.05371    
     26100  -121907.68      672.68246     -121234.99      195.75467      196.30794      885.44533    
     26200  -121880.13      674.72747     -121205.4       195.74027      196.29581      885.83694    
     26300  -121855.02      683.50183     -121171.52      195.72226      196.2804       886.22856    
     26400  -121819.08      685.83964     -121133.24      195.70864      196.26739      886.62018    
     26500  -121777.82      679.04893     -121098.77      195.69253      196.24941      887.01179    
     26600  -121757.64      679.43725     -121078.2       195.68032      196.23483      887.40341    
     26700  -121722.48      667.95826     -121054.52      195.66287      196.21725      887.79503    
     26800  -121698.12      676.14977     -121021.97      195.64848      196.20492      888.18664    
     26900  -121661.77      677.37948     -120984.39      195.62992      196.18799      888.57826    
     27000  -121625.49      675.84466     -120949.65      195.61604      196.17448      888.96988    
     27100  -121598.22      680.21378     -120918         195.59868      196.15574      889.36149    
     27200  -121570.76      671.21268     -120899.55      195.58512      196.14071      889.75311    
     27300  -121547.76      675.1389      -120872.62      195.56706      196.12276      890.14473    
     27400  -121509.27      674.55234     -120834.71      195.55166      196.10868      890.53634    
     27500  -121471.48      674.10954     -120797.37      195.53305      196.09124      890.92796    
     27600  -121445.4       679.48023     -120765.92      195.51799      196.07596      891.31958    
     27700  -121421.13      684.15894     -120736.97      195.50095      196.05659      891.71119    
     27800  -121387.31      670.84045     -120716.47      195.48696      196.03968      892.10281    
     27900  -121356.62      668.55791     -120688.07      195.46918      196.02095      892.49443    
     28000  -121320.53      670.6846      -120649.85      195.45274      196.00604      892.88604    
     28100  -121290.82      676.98548     -120613.83      195.43324      195.98892      893.27766    
     28200  -121256.06      676.94999     -120579.11      195.41695      195.97344      893.66928    
     28300  -121221.26      676.51507     -120544.75      195.39944      195.95429      894.06089    
     28400  -121189.46      678.80776     -120510.65      195.38412      195.937        894.45251    
     28500  -121158.04      682.41322     -120475.62      195.36593      195.91841      894.84413    
     28600  -121129.64      682.10392     -120447.54      195.34851      195.9025       895.23574    
     28700  -121093.76      670.3529      -120423.4       195.32935      195.88494      895.62736    
     28800  -121072.79      678.04014     -120394.75      195.31244      195.86775      896.01898    
     28900  -121037.34      680.54258     -120356.79      195.29508      195.84792      896.41059    
     29000  -120990.97      675.62326     -120315.35      195.27921      195.82961      896.80221    
     29100  -120961.64      675.77364     -120285.86      195.26082      195.81071      897.19383    
     29200  -120936.73      676.52378     -120260.21      195.24247      195.79407      897.58544    
     29300  -120905.85      673.5087      -120232.34      195.22285      195.77658      897.97706    
     29400  -120877.9       678.42341     -120199.48      195.2048       195.75969      898.36868    
     29500  -120836.91      679.06467     -120157.84      195.18627      195.74113      898.76029    
     29600  -120805.02      686.88604     -120118.13      195.16909      195.72349      899.15191    
     29700  -120766.84      675.76789     -120091.07      195.15043      195.7047       899.54353    
     29800  -120745.82      680.26545     -120065.56      195.13269      195.68768      899.93514    
     29900  -120705.75      669.61079     -120036.14      195.11295      195.66948      900.32676    
     30000  -120676.74      675.39935     -120001.34      195.09517      195.65251      900.71838    
     30100  -120631.12      674.68633     -119956.43      195.07638      195.63306      901.10999    
     30200  -120608.12      684.32883     -119923.79      195.05937      195.615        901.50161    
     30300  -120581.79      684.18837     -119897.6       195.04018      195.59568      901.89323    
     30400  -120542.6       673.08921     -119869.51      195.02172      195.57856      902.28484    
     30500  -120513.1       676.60481     -119836.5       195.00139      195.56054      902.67646    
     30600  -120475.2       678.7773      -119796.43      194.98259      195.54331      903.06808    
     30700  -120437.82      685.22108     -119752.6       194.96302      195.52452      903.45969    
     30800  -120406.78      682.41766     -119724.36      194.94481      195.5062       903.85131    
     30900  -120383.43      683.36009     -119700.07      194.92582      195.48673      904.24293    
     31000  -120345.62      674.71532     -119670.9       194.90732      195.46848      904.63454    
     31100  -120312.61      676.23118     -119636.38      194.88767      195.44991      905.02616    
     31200  -120270.87      676.90735     -119593.96      194.86844      195.43197      905.41778    
     31300  -120238.17      681.64167     -119556.53      194.84926      195.41354      905.80939    
     31400  -120208.76      681.79692     -119526.96      194.83022      195.39483      906.20101    
     31500  -120170.21      672.67519     -119497.54      194.81136      195.3765       906.59263    
     31600  -120138.55      673.61339     -119464.94      194.79194      195.35795      906.98424    
     31700  -120109.65      679.92854     -119429.72      194.7724       195.34015      907.37586    
     31800  -120065         675.80399     -119389.2       194.75252      195.32226      907.76748    
     31900  -120031.47      685.63083     -119345.84      194.73298      195.30399      908.15909    
     32000  -119994.32      676.86543     -119317.46      194.71415      195.28483      908.55071    
     32100  -119966.47      675.53462     -119290.94      194.6956       195.26529      908.94233    
     32200  -119938.32      678.10046     -119260.22      194.67623      195.24649      909.33394    
     32300  -119902.78      675.1692      -119227.61      194.656        195.22867      909.72556    
     32400  -119868.66      675.97228     -119192.68      194.63506      195.21101      910.11718    
     32500  -119831.75      680.74385     -119151.01      194.6151       195.19297      910.50879    
     32600  -119795.03      681.56719     -119113.47      194.5959       195.17353      910.90041    
     32700  -119764         679.66171     -119084.33      194.57739      195.15377      911.29203    
     32800  -119736.2       676.56904     -119059.63      194.55788      195.13441      911.68364    
     32900  -119697.38      671.88814     -119025.49      194.53793      195.11627      912.07526    
     33000  -119662.53      675.42348     -118987.11      194.51753      195.09764      912.46688    
     33100  -119626.23      677.67149     -118948.56      194.49873      195.07857      912.85849    
     33200  -119588.93      676.60238     -118912.33      194.4801       195.05779      913.25011    
     33300  -119557.43      680.16572     -118877.26      194.46196      195.03804      913.64173    
     33400  -119518.78      674.03757     -118844.74      194.44181      195.0182       914.03334    
     33500  -119491.17      672.00267     -118819.17      194.42191      195.00063      914.42496    
     33600  -119458.85      673.57417     -118785.28      194.4006       194.98157      914.81658    
     33700  -119423.22      681.27136     -118741.95      194.38208      194.96314      915.20819    
     33800  -119382.39      679.89375     -118702.5       194.36244      194.94231      915.59981    
     33900  -119351.2       682.70832     -118668.49      194.34401      194.92378      915.99143    
     34000  -119318.37      680.6255      -118637.75      194.32313      194.90429      916.38304    
     34100  -119287.59      675.01557     -118612.58      194.30379      194.88681      916.77466    
     34200  -119253.46      674.09326     -118579.37      194.28338      194.86675      917.16628    
     34300  -119211.9       677.78299     -118534.11      194.26601      194.84775      917.55789    
     34400  -119172.01      676.27203     -118495.73      194.2469       194.8263       917.94951    
     34500  -119132.55      673.08665     -118459.46      194.22932      194.80755      918.34113    
     34600  -119100.87      678.48258     -118422.39      194.20895      194.78735      918.73274    
     34700  -119057.65      671.74361     -118385.91      194.18984      194.76957      919.12436    
     34800  -119030.42      676.68698     -118353.73      194.16955      194.74992      919.51598    
     34900  -119005.67      678.82917     -118326.85      194.15132      194.73085      919.90759    
     35000  -118967.41      673.49331     -118293.92      194.13243      194.71055      920.29921    
     35100  -118924.2       673.51582     -118250.69      194.1137       194.69168      920.69083    
     35200  -118889.44      680.2145      -118209.23      194.09375      194.67287      921.08244    
     35300  -118858.28      682.06746     -118176.21      194.0743       194.6548       921.47406    
     35400  -118825.43      680.09376     -118145.34      194.055        194.63565      921.86568    
     35500  -118790.07      674.3667      -118115.7       194.03742      194.61584      922.25729    
     35600  -118748.63      666.63807     -118081.99      194.02007      194.59515      922.64891    
     35700  -118715.77      680.07196     -118035.7       194.00241      194.57587      923.04053    
     35800  -118673.85      679.30916     -117994.54      193.9829       194.55745      923.43214    
     35900  -118641.04      680.86003     -117960.18      193.96354      194.54004      923.82376    
     36000  -118607.54      675.96242     -117931.58      193.94487      194.52094      924.21538    
     36100  -118570.97      669.61463     -117901.35      193.92781      194.50123      924.60699    
     36200  -118539.05      677.50683     -117861.55      193.91         194.48171      924.99861    
     36300  -118499.91      685.01615     -117814.89      193.89106      194.4638       925.39023    
     36400  -118462.45      682.28673     -117780.16      193.8712       194.44708      925.78184    
     36500  -118429.77      679.00842     -117750.77      193.85166      194.42933      926.17346    
     36600  -118391.27      669.92908     -117721.34      193.83449      194.41088      926.56508    
     36700  -118360.3       675.4562      -117684.84      193.81741      194.39098      926.95669    
     36800  -118315.17      679.12511     -117636.05      193.80071      194.37291      927.34831    
     36900  -118285.28      687.36998     -117597.91      193.78193      194.35495      927.73993    
     37000  -118247.3       679.931       -117567.37      193.7638       194.33903      928.13154    
     37100  -118208.36      670.62556     -117537.73      193.74509      194.32142      928.52316    
     37200  -118178.25      675.53408     -117502.71      193.72941      194.30362      928.91478    
     37300  -118137.87      681.17466     -117456.7       193.713        194.28415      929.30639    
     37400  -118095.89      680.11616     -117415.78      193.6968       194.26719      929.69801    
     37500  -118055.24      671.40693     -117383.83      193.67752      194.25065      930.08963    
     37600  -118033.12      679.08533     -117354.04      193.65943      194.23615      930.48124    
     37700  -117997.04      677.65451     -117319.39      193.64101      194.21923      930.87286    
     37800  -117956.09      678.9479      -117277.14      193.62513      194.20229      931.26448    
     37900  -117910.71      681.19817     -117229.51      193.60866      194.18433      931.65609    
     38000  -117879.51      682.20347     -117197.31      193.59183      194.16804      932.04771    
     38100  -117853.63      684.17851     -117169.45      193.57329      194.15257      932.43933    
     38200  -117813.82      677.55295     -117136.26      193.55526      194.13789      932.83094    
     38300  -117775.03      675.84416     -117099.19      193.53814      194.12139      933.22256    
     38400  -117737.67      682.91019     -117054.76      193.52336      194.10378      933.61418    
     38500  -117691.34      680.1792      -117011.16      193.50861      194.08535      934.00579    
     38600  -117661.89      682.65679     -116979.23      193.49281      194.06936      934.39741    
     38700  -117629.6       681.21078     -116948.39      193.47437      194.05467      934.78903    
     38800  -117591.9       677.96496     -116913.93      193.45695      194.04112      935.18064    
     38900  -117552.16      675.6956      -116876.46      193.44014      194.02509      935.57226    
     39000  -117510.98      678.18998     -116832.79      193.42572      194.00888      935.96388    
     39100  -117477.97      690.098       -116787.87      193.41021      193.99216      936.3555     
     39200  -117437.72      683.19201     -116754.53      193.39388      193.9777       936.74711    
     39300  -117400.99      678.37695     -116722.61      193.37609      193.9639       937.13873    
     39400  -117365.95      677.35406     -116688.6       193.35879      193.94986      937.53035    
     39500  -117331.82      679.40268     -116652.41      193.34326      193.93483      937.92196    
     39600  -117294.08      680.25077     -116613.83      193.32785      193.91824      938.31358    
     39700  -117250.69      678.29798     -116572.39      193.31337      193.90282      938.7052     
     39800  -117217.14      684.02881     -116533.11      193.29689      193.88739      939.09681    
     39900  -117176.42      673.24949     -116503.17      193.28081      193.87356      939.48843    
     40000  -117145.97      672.07024     -116473.9       193.26425      193.85878      939.88005    
     40100  -117110.72      675.37844     -116435.34      193.24937      193.84372      940.27166    
     40200  -117070.19      677.59314     -116392.59      193.23456      193.82761      940.66328    
     40300  -117030.09      677.14748     -116352.94      193.21986      193.81206      941.0549     
     40400  -116995.29      679.78663     -116315.51      193.20406      193.79737      941.44651    
     40500  -116958.76      680.21049     -116278.55      193.18728      193.78368      941.83813    
     40600  -116922.44      679.42369     -116243.02      193.17107      193.76984      942.22975    
     40700  -116877.7       669.29394     -116208.41      193.15543      193.75469      942.62136    
     40800  -116847.73      675.46438     -116172.26      193.14093      193.73923      943.01298    
     40900  -116805.03      675.3732      -116129.66      193.12609      193.72378      943.4046     
     41000  -116766.64      681.05399     -116085.59      193.11029      193.70919      943.79621    
     41100  -116728.84      679.039       -116049.8       193.09458      193.69565      944.18783    
     41200  -116694.99      672.4133      -116022.57      193.07841      193.68036      944.57945    
     41300  -116664.12      675.1196      -115989         193.06542      193.66521      944.97106    
     41400  -116623.09      675.70977     -115947.38      193.05131      193.64778      945.36268    
     41500  -116580.42      676.14656     -115904.27      193.03819      193.63321      945.7543     
     41600  -116542.66      680.27172     -115862.38      193.0213       193.61832      946.14591    
     41700  -116502.34      676.15611     -115826.18      193.00612      193.60596      946.53753    
     41800  -116474.88      673.82157     -115801.06      192.98979      193.59044      946.92915    
     41900  -116437.78      673.37731     -115764.4       192.97647      193.57589      947.32076    
     42000  -116395.65      676.50235     -115719.15      192.96139      193.55962      947.71238    
     42100  -116351.5       674.67869     -115676.82      192.94688      193.54586      948.104      
     42200  -116313.72      675.5087      -115638.21      192.93001      193.5317       948.49561    
     42300  -116276.26      672.86023     -115603.4       192.91492      193.51816      948.88723    
     42400  -116241.01      664.60569     -115576.41      192.90065      193.5022       949.27885    
     42500  -116210.38      669.5368      -115540.85      192.88788      193.48553      949.67046    
     42600  -116168.56      672.97424     -115495.59      192.87473      193.46941      950.06208    
     42700  -116137.82      683.45462     -115454.37      192.86032      193.45423      950.4537     
     42800  -116093.99      680.10718     -115413.88      192.8456       193.44022      950.84531    
     42900  -116049.53      675.29765     -115374.23      192.83059      193.4255       951.23693    
     43000  -116019.37      683.94068     -115335.43      192.81691      193.4108       951.62855    
     43100  -115979.07      679.1524      -115299.92      192.80253      193.395        952.02016    
     43200  -115941.66      673.36113     -115268.3       192.78845      193.38102      952.41178    
     43300  -115906.31      674.06011     -115232.25      192.77241      193.36665      952.8034     
     43400  -115861.09      674.51312     -115186.58      192.75752      193.35397      953.19501    
     43500  -115828.43      687.45977     -115140.97      192.74146      193.33916      953.58663    
     43600  -115786.91      681.8945      -115105.02      192.72818      193.32525      953.97825    
     43700  -115757.63      684.07483     -115073.56      192.71347      193.30866      954.36986    
     43800  -115713.01      674.11462     -115038.9       192.70091      193.29443      954.76148    
     43900  -115677.14      676.40377     -115000.74      192.68587      193.27845      955.1531     
     44000  -115646         684.70854     -114961.29      192.67253      193.26482      955.54471    
     44100  -115601.75      679.83183     -114921.92      192.65764      193.24958      955.93633    
     44200  -115564.7       680.88883     -114883.82      192.64471      193.23536      956.32795    
     44300  -115526.28      674.78996     -114851.49      192.63095      193.21988      956.71956    
     44400  -115491.33      673.56976     -114817.76      192.61764      193.20566      957.11118    
     44500  -115449.75      675.08159     -114774.67      192.60342      193.19201      957.5028     
     44600  -115408.22      680.11795     -114728.1       192.58801      193.17896      957.89441    
     44700  -115366.01      678.49588     -114687.52      192.57312      193.1671       958.28603    
     44800  -115328.81      676.47912     -114652.33      192.55738      193.15348      958.67765    
     44900  -115299.49      674.33396     -114625.15      192.54399      193.1408       959.06926    
     45000  -115263.94      676.75523     -114587.19      192.52933      193.12582      959.46088    
     45100  -115217.19      673.5892      -114543.6       192.51651      193.11276      959.8525     
     45200  -115181.19      681.25156     -114499.93      192.50187      193.09798      960.24411    
     45300  -115141.79      682.38438     -114459.4       192.48892      193.08436      960.63573    
     45400  -115099.92      675.82929     -114424.09      192.47539      193.06928      961.02735    
     45500  -115069.94      673.54713     -114396.39      192.46307      193.05465      961.41896    
     45600  -115026.9       669.32219     -114357.58      192.44979      193.03993      961.81058    
     45700  -114989.09      677.77664     -114311.31      192.43565      193.02622      962.2022     
     45800  -114947.91      678.40563     -114269.51      192.42063      193.01404      962.59381    
     45900  -114904.91      674.3798      -114230.53      192.40518      193.00185      962.98543    
     46000  -114869.98      674.63065     -114195.35      192.39041      192.98915      963.37705    
     46100  -114836.68      671.20851     -114165.47      192.37634      192.97582      963.76866    
     46200  -114802.92      672.00698     -114130.91      192.36243      192.96229      964.16028    
     46300  -114754.38      674.90386     -114079.47      192.34811      192.94963      964.5519     
     46400  -114714.88      680.54515     -114034.33      192.33321      192.93742      964.94351    
     46500  -114677.81      680.89171     -113996.92      192.31878      192.92455      965.33513    
     46600  -114637.77      674.06256     -113963.71      192.30575      192.91027      965.72675    
     46700  -114604.58      675.54228     -113929.04      192.29365      192.89506      966.11836    
     46800  -114561.34      670.21252     -113891.13      192.28132      192.87998      966.50998    
     46900  -114522.41      676.24687     -113846.16      192.26777      192.86623      966.9016     
     47000  -114484.34      685.16274     -113799.17      192.25287      192.85367      967.29321    
     47100  -114445.97      683.58507     -113762.38      192.23755      192.84109      967.68483    
     47200  -114412.85      680.77567     -113732.07      192.22353      192.82809      968.07645    
     47300  -114372.38      677.83476     -113694.54      192.20984      192.81385      968.46806    
     47400  -114329.74      675.73838     -113654         192.19614      192.80002      968.85968    
     47500  -114293.52      682.53035     -113610.99      192.18131      192.78702      969.2513     
     47600  -114251.35      687.3028      -113564.04      192.16553      192.77501      969.64291    
     47700  -114209.93      686.61742     -113523.31      192.15001      192.76256      970.03453    
     47800  -114179.5       683.88559     -113495.62      192.13596      192.74896      970.42615    
     47900  -114137.19      677.11966     -113460.07      192.12281      192.7337       970.81776    
     48000  -114100.15      678.73505     -113421.41      192.11         192.71839      971.20938    
     48100  -114054.35      673.7795      -113380.57      192.09646      192.70407      971.601      
     48200  -114016.56      679.19541     -113337.36      192.0816       192.68976      971.99261    
     48300  -113975.15      679.59367     -113295.55      192.06774      192.67632      972.38423    
     48400  -113941.82      679.6708      -113262.15      192.05366      192.66114      972.77585    
     48500  -113901.67      671.24031     -113230.43      192.04097      192.6459       973.16746    
     48600  -113861.7       671.2071      -113190.5       192.02735      192.63065      973.55908    
     48700  -113827.19      680.95528     -113146.23      192.01234      192.61719      973.9507     
     48800  -113782.68      684.61566     -113098.06      191.99621      192.60471      974.34231    
     48900  -113736.54      688.4927      -113048.05      191.97985      192.59167      974.73393    
     49000  -113698.87      683.05478     -113015.82      191.96571      192.57793      975.12555    
     49100  -113664.06      678.27877     -112985.78      191.95146      192.56167      975.51716    
     49200  -113633.97      681.24422     -112952.72      191.9388       192.5467       975.90878    
     49300  -113590.24      672.60181     -112917.64      191.92389      192.53071      976.3004     
     49400  -113555.31      677.99546     -112877.32      191.90993      192.51686      976.69201    
     49500  -113505.86      675.26621     -112830.6       191.8944       192.50106      977.08363    
     49600  -113469.19      684.03239     -112785.15      191.88169      192.48621      977.47525    
     49700  -113429.55      679.4126      -112750.14      191.86754      192.46857      977.86686    
     49800  -113393.52      672.56355     -112720.96      191.85539      192.45335      978.25848    
     49900  -113352.54      671.58679     -112680.95      191.83985      192.43728      978.6501     
     50000  -113316.17      679.01666     -112637.15      191.82469      192.42461      979.04171    
     50100  -113276.84      684.32117     -112592.52      191.80761      192.41049      979.43333    
     50200  -113231.19      675.50259     -112555.68      191.79253      192.39645      979.82495    
     50300  -113203.75      677.95043     -112525.8       191.77841      192.38088      980.21656    
     50400  -113162.35      675.91174     -112486.44      191.76437      192.36441      980.60818    
     50500  -113117.06      675.24653     -112441.81      191.75036      192.3493       980.9998     
     50600  -113077.25      681.85245     -112395.4       191.73402      192.33371      981.39141    
     50700  -113034.43      682.82106     -112351.61      191.71972      192.32013      981.78303    
     50800  -112997.8       677.34117     -112320.46      191.70394      192.30296      982.17465    
     50900  -112965.64      678.25765     -112287.39      191.69192      192.28727      982.56626    
     51000  -112927.62      677.81319     -112249.8       191.67752      192.26866      982.95788    
     51100  -112887.13      676.71192     -112210.42      191.66408      192.25361      983.3495     
     51200  -112852.18      681.24476     -112170.93      191.64719      192.23824      983.74111    
     51300  -112811.03      678.911       -112132.12      191.63147      192.22545      984.13273    
     51400  -112765.54      671.88573     -112093.65      191.6153       192.20977      984.52435    
     51500  -112725.93      672.09497     -112053.84      191.60219      192.19435      984.91596    
     51600  -112691.69      682.06085     -112009.63      191.58747      192.1769       985.30758    
     51700  -112647.1       681.66169     -111965.43      191.57347      192.1627       985.6992     
     51800  -112611.3       684.46235     -111926.84      191.5567       192.14802      986.09081    
     51900  -112576.58      681.21139     -111895.37      191.54117      192.13454      986.48243    
     52000  -112533.76      675.65715     -111858.1       191.52584      192.11908      986.87405    
     52100  -112498.74      684.44239     -111814.3       191.51205      192.10296      987.26566    
     52200  -112450.55      682.54882     -111768         191.49847      192.08695      987.65728    
     52300  -112406.78      689.63752     -111717.14      191.48288      192.07104      988.0489     
     52400  -112366.03      686.93375     -111679.1       191.46789      192.05759      988.44051    
     52500  -112329.72      681.00065     -111648.72      191.45108      192.04227      988.83213    
     52600  -112297.21      683.04016     -111614.17      191.43736      192.02806      989.22375    
     52700  -112254.23      675.84954     -111578.38      191.4219       192.01039      989.61536    
     52800  -112216.06      676.1376      -111539.92      191.40881      191.99626      990.00698    
     52900  -112172.31      672.56089     -111499.75      191.39126      191.98029      990.3986     
     53000  -112134.75      679.84082     -111454.91      191.37629      191.9681       990.79021    
     53100  -112095.21      686.22866     -111408.98      191.35901      191.95208      991.18183    
     53200  -112054.28      682.30692     -111371.97      191.34581      191.93761      991.57345    
     53300  -112018.95      679.4417      -111339.51      191.33056      191.92041      991.96506    
     53400  -111977.38      677.55595     -111299.82      191.3165       191.90625      992.35668    
     53500  -111934.9       676.69913     -111258.2       191.29949      191.8911       992.7483     
     53600  -111891.38      674.32545     -111217.06      191.28397      191.87745      993.13991    
     53700  -111860.67      677.63244     -111183.03      191.26864      191.86184      993.53153    
     53800  -111819.19      673.57314     -111145.61      191.25451      191.84586      993.92315    
     53900  -111776.02      674.23752     -111101.79      191.23977      191.83025      994.31476    
     54000  -111732.23      681.22669     -111051.01      191.22365      191.81565      994.70638    
     54100  -111695.84      690.39275     -111005.45      191.20701      191.80209      995.098      
     54200  -111659.33      686.67677     -110972.66      191.19037      191.78735      995.48961    
     54300  -111618.22      683.0583      -110935.16      191.17579      191.77251      995.88123    
     54400  -111584.66      685.68317     -110898.97      191.1603       191.75588      996.27285    
     54500  -111534.24      672.63377     -110861.61      191.14568      191.74109      996.66446    
     54600  -111495.83      675.03513     -110820.8       191.12887      191.7257       997.05608    
     54700  -111460.29      679.79661     -110780.5       191.11351      191.71173      997.4477     
     54800  -111422.31      678.74649     -110743.56      191.09746      191.69508      997.83931    
     54900  -111380.29      675.47307     -110704.82      191.08388      191.67929      998.23093    
     55000  -111341.34      678.86969     -110662.47      191.06839      191.66186      998.62255    
     55100  -111295.17      683.16466     -110612         191.05356      191.64728      999.01416    
     55200  -111246.74      682.64825     -110564.09      191.03564      191.63185      999.40578    
     55300  -111205.96      677.13242     -110528.83      191.01989      191.61811      999.7974     
     55400  -111171.29      678.95747     -110492.34      191.00337      191.60139      1000.189     
     55500  -111137.19      682.89102     -110454.3       190.98913      191.58577      1000.5806    
     55600  -111094.27      676.63276     -110417.64      190.97301      191.56904      1000.9722    
     55700  -111052.21      674.4738      -110377.74      190.95678      191.55439      1001.3639    
     55800  -111013.75      676.8253      -110336.92      190.93977      191.53952      1001.7555    
     55900  -110975.95      673.76185     -110302.19      190.92331      191.52349      1002.1471    
     56000  -110934.51      671.00499     -110263.5       190.90897      191.50687      1002.5387    
     56100  -110891.66      676.79662     -110214.86      190.89432      191.48842      1002.9303    
     56200  -110845.41      681.96126     -110163.45      190.88011      191.47148      1003.3219    
     56300  -110804.2       681.11803     -110123.08      190.8631       191.45461      1003.7136    
     56400  -110768.05      683.78043     -110084.26      190.84724      191.44027      1004.1052    
     56500  -110733.63      685.72306     -110047.91      190.82964      191.42289      1004.4968    
     56600  -110693.09      681.70871     -110011.38      190.81574      191.40726      1004.8884    
     56700  -110651.89      679.98279     -109971.9       190.79918      191.38893      1005.28      
     56800  -110607.31      676.07544     -109931.24      190.7837       191.37389      1005.6716    
     56900  -110568.63      675.37578     -109893.26      190.76574      191.35774      1006.0633    
     57000  -110530.8       671.86167     -109858.94      190.74942      191.34315      1006.4549    
     57100  -110487.76      674.92865     -109812.83      190.73265      191.32626      1006.8465    
     57200  -110443.18      679.89051     -109763.29      190.71768      191.30973      1007.2381    
     57300  -110402.02      682.79098     -109719.22      190.70192      191.29169      1007.6297    
     57400  -110357.82      678.46476     -109679.35      190.68692      191.27499      1008.0213    
     57500  -110323.97      683.2323      -109640.74      190.67081      191.25782      1008.413     
     57600  -110279.59      679.58829     -109600.01      190.6543       191.24137      1008.8046    
     57700  -110232.16      673.6782      -109558.48      190.63838      191.22516      1009.1962    
     57800  -110199.7       683.1282      -109516.58      190.62234      191.20762      1009.5878    
     57900  -110159.94      684.77439     -109475.16      190.60705      191.19018      1009.9794    
     58000  -110115.54      681.58656     -109433.96      190.59116      191.17308      1010.371     
     58100  -110077.13      684.13192     -109393         190.57426      191.1569       1010.7627    
     58200  -110030.99      677.77985     -109353.21      190.55715      191.14103      1011.1543    
     58300  -109996.09      683.34596     -109312.74      190.54082      191.12504      1011.5459    
     58400  -109951.94      681.30773     -109270.63      190.52459      191.10801      1011.9375    
     58500  -109903.75      674.85865     -109228.89      190.50868      191.09166      1012.3291    
     58600  -109865.26      678.42007     -109186.84      190.49188      191.07538      1012.7207    
     58700  -109822.92      677.92345     -109145         190.47545      191.05958      1013.1124    
     58800  -109784.93      682.67168     -109102.26      190.45924      191.04235      1013.504     
     58900  -109735.61      675.16189     -109060.45      190.44441      191.02608      1013.8956    
     59000  -109699.07      679.53343     -109019.53      190.42805      191.00851      1014.2872    
     59100  -109660.24      681.79483     -108978.44      190.41241      190.99311      1014.6788    
     59200  -109617.69      681.3786      -108936.31      190.39558      190.97656      1015.0704    
     59300  -109574.71      680.11665     -108894.59      190.38031      190.96042      1015.4621    
     59400  -109527.61      674.64803     -108852.97      190.36491      190.94325      1015.8537    
     59500  -109486.68      676.44942     -108810.23      190.34931      190.92649      1016.2453    
     59600  -109442.77      674.80952     -108767.96      190.3327       190.91087      1016.6369    
     59700  -109404.25      679.17555     -108725.07      190.31531      190.89622      1017.0285    
     59800  -109360.97      677.91269     -108683.05      190.29779      190.88107      1017.4201    
     59900  -109322.41      681.3572      -108641.05      190.28196      190.86527      1017.8118    
     60000  -109275.41      677.06454     -108598.34      190.2661       190.84849      1018.2034    
     60100  -109241.08      685.60193     -108555.47      190.25032      190.83267      1018.595     
     60200  -109192.87      679.44395     -108513.42      190.23332      190.81706      1018.9866    
     60300  -109153.22      682.80944     -108470.41      190.21668      190.80189      1019.3782    
     60400  -109113.55      685.78861     -108427.76      190.20123      190.78575      1019.7698    
     60500  -109063.84      678.89229     -108384.95      190.18612      190.76836      1020.1615    
     60600  -109027.94      686.47834     -108341.46      190.17134      190.75165      1020.5531    
     60700  -108975.14      676.20873     -108298.93      190.15542      190.73562      1020.9447    
     60800  -108936.55      681.23137     -108255.32      190.13856      190.72053      1021.3363    
     60900  -108890.42      677.66656     -108212.75      190.12179      190.70547      1021.7279    
     61000  -108848.57      678.93439     -108169.64      190.10593      190.6895       1022.1195    
     61100  -108803.93      677.66761     -108126.26      190.09057      190.67309      1022.5112    
     61200  -108764.13      681.37317     -108082.75      190.074        190.65733      1022.9028    
     61300  -108719.07      679.95709     -108039.11      190.05666      190.64374      1023.2944    
     61400  -108682.12      686.10353     -107996.02      190.03849      190.62925      1023.686     
     61500  -108630.22      679.47892     -107950.74      190.02259      190.61365      1024.0776    
     61600  -108590.01      681.80155     -107908.21      190.00827      190.59575      1024.4692    
     61700  -108537.98      673.7641      -107864.22      189.99418      190.57828      1024.8609    
     61800  -108501.9       681.98617     -107819.92      189.97788      190.5622       1025.2525    
     61900  -108453.63      678.74153     -107774.89      189.96039      190.54814      1025.6441    
     62000  -108414.65      683.39508     -107731.25      189.94331      190.5333       1026.0357    
     62100  -108369.82      685.01513     -107684.81      189.92822      190.51633      1026.4273    
     62200  -108324.5       683.27027     -107641.23      189.91434      190.4987       1026.8189    
     62300  -108277.51      679.80327     -107597.71      189.89847      190.48177      1027.2106    
     62400  -108232.13      680.10423     -107552.02      189.88117      190.46787      1027.6022    
     62500  -108187.81      680.7854      -107507.03      189.86246      190.45352      1027.9938    
     62600  -108145.96      683.50862     -107462.45      189.84619      190.43874      1028.3854    
     62700  -108099.2       683.4951      -107415.7       189.83048      190.42107      1028.777     
     62800  -108049.81      679.33333     -107370.48      189.81632      190.40403      1029.1686    
     62900  -108009.86      684.2153      -107325.64      189.80045      190.38722      1029.5603    
     63000  -107957.23      677.90554     -107279.33      189.7835       190.3717       1029.9519    
     63100  -107911.6       677.40275     -107234.2       189.76676      190.3563       1030.3435    
     63200  -107859.11      671.45332     -107187.66      189.75092      190.33948      1030.7351    
     63300  -107824.23      682.51516     -107141.71      189.7364       190.32157      1031.1267    
     63400  -107777.7       681.72109     -107095.98      189.72163      190.30409      1031.5183    
     63500  -107733.75      684.86014     -107048.89      189.7055       190.28774      1031.91      
     63600  -107684.47      681.38329     -107003.09      189.68831      190.27255      1032.3016    
     63700  -107640.06      683.28293     -106956.77      189.67123      190.25745      1032.6932    
     63800  -107587.16      676.92815     -106910.23      189.65504      190.24109      1033.0848    
     63900  -107535.63      672.7557      -106862.88      189.63979      190.2239       1033.4764    
     64000  -107496.31      681.422       -106814.89      189.62442      190.20755      1033.868     
     64100  -107448.75      681.54877     -106767.2       189.60727      190.19155      1034.2597    
     64200  -107397.84      679.11404     -106718.72      189.59077      190.17641      1034.6513    
     64300  -107351.31      680.6919      -106670.62      189.57431      190.15956      1035.0429    
     64400  -107301.37      678.30462     -106623.07      189.55937      190.1428       1035.4345    
     64500  -107256.46      680.29147     -106576.17      189.54347      190.1256       1035.8261    
     64600  -107210.21      682.69351     -106527.51      189.52772      190.10958      1036.2177    
     64700  -107160.54      681.27484     -106479.27      189.51127      190.09275      1036.6094    
     64800  -107114.04      682.70042     -106431.34      189.49603      190.07636      1037.001     
     64900  -107065.05      683.0372      -106382.01      189.48036      190.05862      1037.3926    
     65000  -107018.14      684.9107      -106333.23      189.46533      190.04233      1037.7842    
     65100  -106967.47      683.97812     -106283.5       189.44842      190.02589      1038.1758    
     65200  -106913         678.1273      -106234.87      189.43222      190.0108       1038.5674    
     65300  -106869.49      684.21544     -106185.28      189.41544      189.99425      1038.9591    
     65400  -106819.32      683.67794     -106135.64      189.4003       189.97826      1039.3507    
     65500  -106769.38      683.02477     -106086.36      189.38417      189.96127      1039.7423    
     65600  -106718.27      682.45114     -106035.82      189.36859      189.94571      1040.1339    
     65700  -106667.42      682.58451     -105984.84      189.35131      189.93008      1040.5255    
     65800  -106618.79      684.86882     -105933.92      189.33528      189.91538      1040.9172    
     65900  -106560.85      680.36546     -105880.49      189.3194       189.89818      1041.3088    
     66000  -106509.65      679.97624     -105829.67      189.30516      189.88147      1041.7004    
     66100  -106463.52      685.31639     -105778.2       189.28938      189.86469      1042.092     
     66200  -106413.95      685.36357     -105728.59      189.27358      189.84961      1042.4836    
     66300  -106360.13      682.0767      -105678.05      189.257        189.83333      1042.8752    
     66400  -106301.97      675.8441      -105626.13      189.24201      189.81772      1043.2669    
     66500  -106256.53      682.33222     -105574.2       189.22601      189.80119      1043.6585    
     66600  -106208.25      687.1328      -105521.12      189.21032      189.78606      1044.0501    
     66700  -106150.05      682.73246     -105467.32      189.19352      189.77084      1044.4417    
     66800  -106098.64      685.15319     -105413.49      189.17723      189.75583      1044.8333    
     66900  -106043.17      682.95047     -105360.22      189.1613       189.74015      1045.2249    
     67000  -105986.82      679.99231     -105306.83      189.14556      189.72409      1045.6166    
     67100  -105933.66      679.36791     -105254.29      189.13006      189.70873      1046.0082    
     67200  -105883.26      682.52177     -105200.74      189.11376      189.69268      1046.3998    
     67300  -105827.98      680.75504     -105147.22      189.09856      189.67752      1046.7914    
     67400  -105779.01      686.48124     -105092.53      189.08253      189.66101      1047.183     
     67500  -105721.1       684.53045     -105036.57      189.06773      189.64568      1047.5746    
     67600  -105660.86      679.55271     -104981.31      189.05132      189.62895      1047.9663    
     67700  -105611.34      685.29273     -104926.05      189.03634      189.614        1048.3579    
     67800  -105551.39      680.67771     -104870.71      189.01994      189.59788      1048.7495    
     67900  -105491.19      675.32213     -104815.87      189.00425      189.58296      1049.1411    
     68000  -105446.49      685.83232     -104760.66      188.98741      189.56761      1049.5327    
     68100  -105386.26      681.69687     -104704.56      188.97112      189.55296      1049.9243    
     68200  -105327.28      680.196       -104647.08      188.95496      189.5373       1050.316     
     68300  -105275.28      682.96602     -104592.31      188.94003      189.52119      1050.7076    
     68400  -105216.87      680.78103     -104536.09      188.92442      189.50494      1051.0992    
     68500  -105167.6       688.36284     -104479.24      188.90805      189.49003      1051.4908    
     68600  -105108.64      686.70961     -104421.94      188.89133      189.47483      1051.8824    
     68700  -105047.34      683.3766      -104363.96      188.87629      189.45892      1052.274     
     68800  -104996.22      689.83201     -104306.39      188.86139      189.44137      1052.6657    
     68900  -104937.25      688.97302     -104248.28      188.84638      189.42523      1053.0573    
     69000  -104872.47      682.59564     -104189.87      188.82962      189.40974      1053.4489    
     69100  -104815.6       684.00913     -104131.59      188.81271      189.39528      1053.8405    
     69200  -104754.47      682.50313     -104071.96      188.79629      189.37918      1054.2321    
     69300  -104697.09      684.44598     -104012.65      188.78142      189.36269      1054.6237    
     69400  -104631.81      680.2772      -103951.54      188.76545      189.34606      1055.0154    
     69500  -104575.96      683.09187     -103892.87      188.74897      189.331        1055.407     
     69600  -104518.74      683.86767     -103834.88      188.73214      189.31526      1055.7986    
     69700  -104466.1       691.74298     -103774.36      188.71691      189.29897      1056.1902    
     69800  -104405.32      688.88764     -103716.43      188.70146      189.28187      1056.5818    
     69900  -104340.99      683.99394     -103656.99      188.68586      189.26555      1056.9734    
     70000  -104281.71      684.48018     -103597.23      188.6696       189.24942      1057.3651    
     70100  -104222.88      688.46676     -103534.41      188.65391      189.23297      1057.7567    
     70200  -104156.06      683.0688      -103472.99      188.63812      189.21628      1058.1483    
     70300  -104099.01      689.08914     -103409.92      188.62217      189.20012      1058.5399    
     70400  -104035.5       687.85306     -103347.64      188.60555      189.18436      1058.9315    
     70500  -103975.69      691.68765     -103284.01      188.58898      189.16826      1059.3231    
     70600  -103910.36      689.86852     -103220.49      188.57336      189.15197      1059.7148    
     70700  -103850.49      690.46029     -103160.03      188.55693      189.13507      1060.1064    
     70800  -103780.95      684.37817     -103096.57      188.54091      189.11951      1060.498     
     70900  -103717.85      683.84728     -103034.01      188.52367      189.10295      1060.8896    
     71000  -103662.27      692.93721     -102969.33      188.5084       189.08691      1061.2812    
     71100  -103590.16      686.64046     -102903.52      188.49247      189.06863      1061.6728    
     71200  -103532.97      693.83496     -102839.13      188.47735      189.05247      1062.0645    
     71300  -103465.13      691.00317     -102774.13      188.45977      189.03587      1062.4561    
     71400  -103405.33      695.10014     -102710.23      188.44407      189.02037      1062.8477    
     71500  -103339.84      692.96369     -102646.88      188.42766      189.00232      1063.2393    
     71600  -103280.94      696.41928     -102584.52      188.41284      188.98609      1063.6309    
     71700  -103215.66      694.71775     -102520.94      188.39531      188.96884      1064.0225    
     71800  -103148.98      693.95739     -102455.02      188.37917      188.95388      1064.4142    
     71900  -103082.22      695.7577      -102386.46      188.36186      188.93665      1064.8058    
     72000  -103021.79      699.98669     -102321.8       188.34641      188.92031      1065.1974    
     72100  -102949.41      695.02441     -102254.39      188.32961      188.90327      1065.589     
     72200  -102883.06      697.60768     -102185.45      188.31275      188.88755      1065.9806    
     72300  -102815.07      694.30812     -102120.76      188.2957       188.87133      1066.3722    
     72400  -102752.84      699.51196     -102053.33      188.2797       188.85429      1066.7639    
     72500  -102689.04      705.63199     -101983.41      188.26412      188.83705      1067.1555    
     72600  -102624.06      708.29072     -101915.77      188.24737      188.8202       1067.5471    
     72700  -102539.7       696.16439     -101843.53      188.23034      188.80436      1067.9387    
     72800  -102477.6       703.37981     -101774.22      188.21359      188.78758      1068.3303    
[...]
     81600  -120389.86      786.80079     -119603.06      187.33396      187.97998      1102.7926    
     81700  -120596.13      787.10209     -119809.03      187.33396      187.98274      1103.1842    
     81800  -120799.61      784.87425     -120014.73      187.3339       187.98569      1103.5758    
     81900  -121000.23      781.92333     -120218.31      187.33346      187.9884       1103.9674    
     82000  -121197.75      778.48173     -120419.27      187.33267      187.99129      1104.3591    
     82100  -121388.94      772.86209     -120616.08      187.33186      187.99459      1104.7507    
     82200  -121578.14      769.85558     -120808.28      187.33115      187.99791      1105.1423    
     82300  -121763.8       766.6831      -120997.11      187.33069      188.00118      1105.5339    
     82400  -121951.66      767.16613     -121184.49      187.33047      188.00415      1105.9255    
     82500  -122137.96      766.03125     -121371.93      187.33045      188.00725      1106.3171    
     82600  -122323.62      764.93731     -121558.68      187.33038      188.01066      1106.7088    
     82700  -122508.02      763.12191     -121744.9       187.33009      188.01416      1107.1004    
     82800  -122692.18      762.96592     -121929.21      187.32993      188.01754      1107.492     
     82900  -122873.11      760.74863     -122112.36      187.32988      188.02094      1107.8836    
     83000  -123054.66      760.0377      -122294.62      187.3297       188.02443      1108.2752    
     83100  -123237.5       760.85013     -122476.65      187.32944      188.02814      1108.6668    
     83200  -123420         760.43183     -122659.57      187.32908      188.03198      1109.0585    
     83300  -123601.9       759.65511     -122842.24      187.329        188.03595      1109.4501    
     83400  -123779.59      756.33652     -123023.26      187.3291       188.03953      1109.8417    
     83500  -123950.6       750.0391      -123200.56      187.32926      188.04308      1110.2333    
     83600  -124116.68      745.02779     -123371.65      187.32935      188.04677      1110.6249    
     83700  -124277.6       740.21693     -123537.38      187.32917      188.0506       1111.0165    
     83800  -124433.18      735.16849     -123698.01      187.32895      188.05464      1111.4082    
     83900  -124582.16      729.37958     -123852.78      187.32876      188.05863      1111.7998    
     84000  -124726.33      725.16848     -124001.17      187.32911      188.06274      1112.1914    
     84100  -124867.32      722.49462     -124144.82      187.32967      188.06698      1112.583     
     84200  -125003.41      718.88464     -124284.52      187.33029      188.07147      1112.9746    
     84300  -125137.06      716.58488     -124420.48      187.33056      188.07613      1113.3662    
     84400  -125265.2       712.48561     -124552.71      187.33106      188.08112      1113.7579    
     84500  -125388.4       708.58402     -124679.81      187.3319       188.08582      1114.1495    
     84600  -125505.68      704.46719     -124801.22      187.33306      188.0906       1114.5411    
     84700  -125618.52      701.52373     -124917         187.33399      188.09545      1114.9327    
     84800  -125727.75      699.52343     -125028.22      187.33482      188.10033      1115.3243    
     84900  -125832.33      696.8538      -125135.47      187.33563      188.10519      1115.7159    
     85000  -125932.76      694.33389     -125238.42      187.33661      188.1102       1116.1076    
     85100  -126027.04      690.6313      -125336.41      187.3377       188.11528      1116.4992    
     85200  -126119.76      691.00679     -125428.76      187.33889      188.12047      1116.8908    
     85300  -126204.27      686.73014     -125517.54      187.34037      188.126        1117.2824    
     85400  -126282.16      682.78072     -125599.38      187.34192      188.13183      1117.674     
     85500  -126354.87      681.57072     -125673.3       187.34378      188.13783      1118.0656    
     85600  -126423.93      681.96062     -125741.97      187.34576      188.1437       1118.4573    
     85700  -126485.61      678.86158     -125806.75      187.34806      188.1497       1118.8489    
     85800  -126541.52      676.61285     -125864.91      187.35036      188.15577      1119.2405    
     85900  -126590.07      675.26636     -125914.8       187.35263      188.16218      1119.6321    
     86000  -126632.36      675.46526     -125956.89      187.35468      188.16856      1120.0237    
     86100  -126668.66      675.98403     -125992.67      187.35691      188.1753       1120.4153    
     86200  -126698.81      675.16038     -126023.65      187.35933      188.18202      1120.807     
     86300  -126723.36      674.30305     -126049.06      187.36213      188.1887       1121.1986    
     86400  -126741.36      673.62945     -126067.73      187.36511      188.19541      1121.5902    
     86500  -126753.11      674.30358     -126078.8       187.36827      188.20219      1121.9818    
     86600  -126758.96      675.36539     -126083.59      187.37125      188.20899      1122.3734    
     86700  -126759.81      675.63786     -126084.17      187.37427      188.21622      1122.765     
     86800  -126753.82      673.13329     -126080.68      187.37722      188.22367      1123.1567    
     86900  -126740.03      671.03172     -126069         187.38019      188.23096      1123.5483    
     87000  -126718.38      672.72257     -126045.66      187.3834       188.23816      1123.9399    
     87100  -126688.19      674.45933     -126013.73      187.38654      188.24491      1124.3315    
     87200  -126649.3       672.87857     -125976.42      187.3899       188.25209      1124.7231    
     87300  -126601.49      669.20426     -125932.28      187.39274      188.25917      1125.1147    
     87400  -126545.56      667.91949     -125877.64      187.39561      188.26653      1125.5064    
     87500  -126475.51      662.66962     -125812.84      187.39844      188.27378      1125.898     
     87600  -126398.24      662.04059     -125736.2       187.40147      188.28128      1126.2896    
     87700  -126308.63      657.98409     -125650.65      187.40453      188.28855      1126.6812    
     87800  -126215.84      656.92302     -125558.92      187.40773      188.29559      1127.0728    
     87900  -126111.65      649.82965     -125461.82      187.4115       188.3027       1127.4644    
     88000  -126031.43      672.49819     -125358.93      187.41325      188.30799      1127.8561    
     88100  -125958.41      683.13731     -125275.27      187.41132      188.30903      1128.2477    
     88200  -125873.24      660.04947     -125213.19      187.41627      188.31645      1128.6393    
     88300  -125827.79      684.54391     -125143.25      187.41769      188.32004      1129.0309    
     88400  -125768.05      678.31671     -125089.73      187.41947      188.32294      1129.4225    
     88500  -125726.39      676.17642     -125050.22      187.42786      188.33131      1129.8141    
     88600  -125698.97      680.7325      -125018.24      187.42999      188.33412      1130.2058    
     88700  -125685.39      685.69396     -124999.7       187.43961      188.34424      1130.5974    
     88800  -125650.05      662.80929     -124987.24      187.44448      188.35005      1130.989     
     88900  -125646.94      696.77626     -124950.16      187.452        188.35932      1131.3806    
     89000  -125658.77      713.00635     -124945.76      187.46401      188.37006      1131.7722    
     89100  -125679.63      676.36479     -125003.27      187.47667      188.38082      1132.1638    
     89200  -125698.52      650.59348     -125047.93      187.49051      188.39234      1132.5555    
     89300  -125720.53      676.04641     -125044.49      187.50405      188.40037      1132.9471    
     89400  -125731.7       699.11729     -125032.58      187.52038      188.4111       1133.3387    
     89500  -125758.01      695.00125     -125063.01      187.53597      188.42373      1133.7303    
     89600  -125799.46      670.30498     -125129.15      187.54828      188.43529      1134.1219    
     89700  -125846.07      660.59155     -125185.48      187.56129      188.45011      1134.5135    
     89800  -125867.15      661.22665     -125205.93      187.57598      188.46231      1134.9052    
     89900  -125881.12      686.35734     -125194.76      187.5953       188.47403      1135.2968    
     90000  -125907.11      707.94966     -125199.16      187.62233      188.48795      1135.6884    
     90100  -125929.72      673.85382     -125255.86      187.65004      188.50202      1136.08      
     90200  -125955.11      650.70831     -125304.4       187.68289      188.52263      1136.4716    
     90300  -125961.02      655.54038     -125305.48      187.71461      188.5449       1136.8632    
     90400  -125945.23      677.92847     -125267.31      187.75177      188.5742       1137.2549    
     90500  -125922.01      692.63453     -125229.37      187.79205      188.605        1137.6465    
     90600  -125916.01      693.24763     -125222.76      187.8323       188.63831      1138.0381    
     90700  -125939.25      694.95717     -125244.29      187.87441      188.66965      1138.4297    
     90800  -125941.96      670.9092      -125271.06      187.91555      188.6991       1138.8213    
     90900  -125965.4       660.35982     -125305.04      187.9625       188.73017      1139.2129    
     91000  -125958.94      654.71387     -125304.23      188.01246      188.76038      1139.6046    
     91100  -125940.87      684.31705     -125256.56      188.06072      188.78565      1139.9962    
     91200  -125909.88      692.70372     -125217.18      188.11         188.8108       1140.3878    
     91300  -125923.29      709.54217     -125213.74      188.16225      188.8345       1140.7794    
     91400  -125936.02      678.31527     -125257.71      188.21639      188.8562       1141.171     
     91500  -125959.86      659.05947     -125300.8       188.27169      188.88046      1141.5626    
     91600  -125958.77      654.34756     -125304.42      188.32527      188.90368      1141.9543    
     91700  -125933.62      668.78075     -125264.84      188.3727       188.92228      1142.3459    
     91800  -125910.24      699.79576     -125210.44      188.41981      188.94169      1142.7375    
     91900  -125909.57      710.53345     -125199.03      188.46201      188.96109      1143.1291    
     92000  -125936.36      686.17215     -125250.19      188.50075      188.98236      1143.5207    
     92100  -125960.95      653.37072     -125307.58      188.53629      189.00326      1143.9123    
     92200  -125964.51      647.06268     -125317.45      188.57183      189.02329      1144.304     
     92300  -125955.83      680.78722     -125275.04      188.59727      189.04599      1144.6956    
     92400  -125941.36      705.26605     -125236.09      188.62037      189.07506      1145.0872    
     92500  -125950.4       698.29519     -125252.11      188.64402      189.10436      1145.4788    
     92600  -125973.67      670.18004     -125303.49      188.66627      189.13728      1145.8704    
     92700  -125989.99      654.33944     -125335.65      188.68581      189.17309      1146.262     
     92800  -125993.71      666.48379     -125327.23      188.70568      189.20695      1146.6537    
     92900  -125978.08      680.16579     -125297.92      188.72963      189.24378      1147.0453    
     93000  -125967.57      692.14851     -125275.42      188.75184      189.27848      1147.4369    
     93100  -125974.61      689.76796     -125284.84      188.78044      189.31491      1147.8285    
     93200  -125983.32      668.48678     -125314.84      188.81246      189.35418      1148.2201    
     93300  -125998.65      665.27006     -125333.38      188.84798      189.39873      1148.6117    
     93400  -125988.32      660.75071     -125327.57      188.88674      189.44592      1149.0034    
     93500  -125974.44      677.20931     -125297.23      188.92759      189.49675      1149.395     
     93600  -125955.3       685.93983     -125269.36      188.973        189.5497       1149.7866    
     93700  -125940.73      681.6069      -125259.12      189.02297      189.60382      1150.1782    
     93800  -125937.08      677.48609     -125259.59      189.0765       189.65731      1150.5698    
     93900  -125939.41      678.92357     -125260.49      189.13156      189.71298      1150.9614    
     94000  -125941.04      677.46583     -125263.57      189.1869       189.76827      1151.3531    
     94100  -125927.56      676.03252     -125251.53      189.24555      189.82685      1151.7447    
     94200  -125930.73      671.59621     -125259.14      189.29959      189.88452      1152.1363    
     94300  -125922.45      674.96792     -125247.48      189.35151      189.9381       1152.5279    
     94400  -125928.21      689.86976     -125238.34      189.40121      189.98462      1152.9195    
     94500  -125930.9       687.91401     -125242.98      189.44555      190.02651      1153.3111    
     94600  -125937.27      674.83662     -125262.44      189.48772      190.06032      1153.7028    
     94700  -125948.04      673.07396     -125274.97      189.53311      190.09055      1154.0944    
     94800  -125953.13      676.09535     -125277.04      189.574        190.11673      1154.486     
     94900  -125955.38      679.93036     -125275.45      189.61017      190.144        1154.8776    
     95000  -125962.96      682.12164     -125280.84      189.64316      190.17105      1155.2692    
     95100  -125970.26      675.66259     -125294.6       189.67443      190.19852      1155.6608    
     95200  -125970.57      666.8844      -125303.68      189.70602      190.22874      1156.0525    
     95300  -125945.39      678.56697     -125266.82      189.73183      190.25593      1156.4441    
     95400  -125960.54      692.38443     -125268.15      189.76086      190.27966      1156.8357    
     95500  -125975.39      684.86926     -125290.52      189.78273      190.29514      1157.2273    
     95600  -125981.45      663.77417     -125317.68      189.80754      190.31184      1157.6189    
     95700  -125986.63      663.76488     -125322.86      189.82807      190.32393      1158.0105    
     95800  -125971.66      667.23336     -125304.42      189.84393      190.33976      1158.4022    
     95900  -125959.11      685.05731     -125274.06      189.85506      190.34953      1158.7938    
     96000  -125946.12      689.31783     -125256.8       189.86904      190.35228      1159.1854    
     96100  -125940.23      681.25056     -125258.98      189.87977      190.34881      1159.577     
     96200  -125930.48      666.89795     -125263.58      189.88764      190.33985      1159.9686    
     96300  -125928.71      677.01645     -125251.69      189.8935       190.32265      1160.3602    
     96400  -125924.79      687.44862     -125237.34      189.8954       190.30188      1160.7519    
     96500  -125927.05      686.72131     -125240.33      189.88838      190.28084      1161.1435    
     96600  -125937.73      676.95016     -125260.78      189.88453      190.26695      1161.5351    
     96700  -125944.84      664.57751     -125280.26      189.88272      190.25618      1161.9267    
     96800  -125945.23      666.59415     -125278.64      189.8826       190.24915      1162.3183    
     96900  -125947.02      684.48137     -125262.54      189.88755      190.24019      1162.7099    
     97000  -125954.03      694.41092     -125259.62      189.89463      190.22966      1163.1016    
     97100  -125969.02      682.92391     -125286.09      189.9015       190.21918      1163.4932    
     97200  -125978.05      662.62011     -125315.43      189.90757      190.2152       1163.8848    
     97300  -125990.05      670.13875     -125319.91      189.91073      190.21369      1164.2764    
     97400  -125988.48      681.75039     -125306.73      189.9209       190.2172       1164.668     
     97500  -125992.99      692.77043     -125300.22      189.93316      190.22237      1165.0596    
     97600  -125995.73      681.1171      -125314.61      189.95113      190.23114      1165.4513    
     97700  -126000.05      665.61863     -125334.43      189.97388      190.23914      1165.8429    
     97800  -126003.4       665.96142     -125337.43      190.00562      190.24488      1166.2345    
     97900  -125989.39      670.67542     -125318.71      190.04184      190.25135      1166.6261    
     98000  -125977.65      686.81146     -125290.83      190.07772      190.25604      1167.0177    
     98100  -125975.74      696.75962     -125278.98      190.11432      190.26151      1167.4093    
     98200  -125972.58      678.35868     -125294.22      190.15071      190.2684       1167.801     
     98300  -125985.6       671.84665     -125313.76      190.19292      190.27562      1168.1926    
     98400  -125978.55      665.81386     -125312.74      190.24133      190.28354      1168.5842    
     98500  -125963.73      675.1638      -125288.57      190.29241      190.29424      1168.9758    
     98600  -125943.47      684.93451     -125258.54      190.34486      190.30379      1169.3674    
     98700  -125934.31      687.24427     -125247.07      190.39436      190.31345      1169.759     
     98800  -125942.49      679.83633     -125262.66      190.4386       190.3297       1170.1507    
     98900  -125946.35      664.01108     -125282.34      190.47507      190.34335      1170.5423    
     99000  -125941.75      663.11417     -125278.63      190.5057       190.35414      1170.9339    
     99100  -125925.22      677.23594     -125247.98      190.52898      190.35955      1171.3255    
     99200  -125917.02      697.94775     -125219.07      190.54627      190.36001      1171.7171    
     99300  -125911.02      688.70274     -125222.32      190.55505      190.35365      1172.1087    
     99400  -125925.39      677.72196     -125247.67      190.55623      190.34386      1172.5004    
     99500  -125941.06      671.39174     -125269.66      190.54633      190.33103      1172.892     
     99600  -125954.27      676.77933     -125277.49      190.52827      190.31767      1173.2836    
     99700  -125950.29      673.62187     -125276.67      190.50483      190.30508      1173.6752    
     99800  -125950.52      676.66638     -125273.86      190.47697      190.28971      1174.0668    
     99900  -125953.81      678.70721     -125275.11      190.44786      190.27461      1174.4584    
    100000  -125960.05      679.38102     -125280.67      190.41852      190.25745      1174.8501    
Loop time of 3103.2 on 12 procs for 100000 steps with 17480 atoms

Performance: 2.784 ns/day, 8.620 hours/ns, 32.225 timesteps/s, 563.289 katom-step/s
94.9% CPU use with 12 MPI tasks x 1 OpenMP threads

MPI task timing breakdown:
Section |  min time  |  avg time  |  max time  |%varavg| %total
---------------------------------------------------------------
Pair    | 2033.1     | 2496.9     | 2790.1     | 443.6 | 80.46
Neigh   | 8.6963     | 13.937     | 16.367     |  67.6 |  0.45
Comm    | 179.74     | 440.56     | 744.23     | 799.8 | 14.20
Output  | 0.73703    | 0.80143    | 0.87363    |   4.7 |  0.03
Modify  | 67.491     | 148.3      | 314.75     | 653.5 |  4.78
Other   |            | 2.659      |            |       |  0.09

Nlocal:        1456.67 ave        2988 max         269 min
Histogram: 2 2 1 1 1 2 0 0 2 1
Nghost:        1597.67 ave        3487 max         317 min
Histogram: 2 0 3 2 1 2 0 0 1 1
Neighs:              0 ave           0 max           0 min
Histogram: 12 0 0 0 0 0 0 0 0 0

Total # of neighbors = 0
Ave neighs/atom = 0
Neighbor list builds = 869
Dangerous builds = 0
Total wall time: 0:51:43
