LAMMPS (2 Aug 2023 - Update 3)
OMP_NUM_THREADS environment is not set. Defaulting to 1 thread. (src/comm.cpp:98)
  using 1 OpenMP thread(s) per MPI task

# 1------general---------------
units                             metal      #单位为lammps 中的metel 类型
dimension                    3          #模拟的维度 三维
boundary                    p p p      #周期边界条件
atom_style                  atomic   #原子类型自动
atom_modify              map array sort 100 2.0
neighbor                    3.0 bin
neigh_modify            every 1 delay 0 check yes
#2 -----global variable-------定义全局变量，方便统一修改；
variable temperature equal 300
variable tstep equal 0.001
variable pressure equal 0
variable thermalstep equal 100
variable dumpstep equal 1000
variable relaxtime equal 0
variable totaltime equal 100000
variable deformrate equal 5e-3
#3 -------model------------
#box tilt large
read_data     1.lmp
Reading data file ...
  orthogonal box = (-100 -100 -2.3312511) to (100 100 38.891558)
  3 by 4 by 1 MPI processor grid
  reading atoms ...
  784 atoms
  read_data CPU = 0.864 seconds
group SR type 2
240 atoms in group SR
delete_atoms group SR
Deleted 240 atoms, new total = 544

replicate 1 1 5
Replication is creating a 1x1x5 = 5 times larger system...
  orthogonal box = (-100 -100 -2.3312511) to (100 100 203.78279)
  2 by 2 by 3 MPI processor grid
  2720 atoms
  replicate CPU = 0.828 seconds
write_data l.data
System init for write_data ...
WARNING: Communication cutoff is 0.0. No ghost atoms will be generated. Atoms may get lost. (src/comm_brick.cpp:210)

pair_style hybrid airebo 3.0 airebo 3.0  lj/cut 10
pair_coeff * * airebo 1 CH.airebo C NULL
Reading airebo potential file CH.airebo with DATE: 2011-10-25
pair_coeff * * airebo 2 CH.airebo NULL C
Reading airebo potential file CH.airebo with DATE: 2011-10-25
pair_coeff 1 2 lj/cut 0.00456 3.431

# 5------minimize -----------
min_style      sd
minimize       1.0e-4 1.0e-6 100 1000
Neighbor list info ...
  update: every = 1 steps, delay = 0 steps, check = yes
  max neighbors/atom: 2000, page size: 100000
  master list distance cutoff = 13.2
  ghost atom cutoff = 13.2
  binsize = 6.6, bins = 31 31 32
  5 neighbor lists, perpetual/occasional/extra = 5 0 0
  (1) pair airebo, perpetual, skip from (4)
      attributes: full, newton on, ghost
      pair build: skip/ghost
      stencil: none
      bin: none
  (2) pair airebo, perpetual, skip from (4)
      attributes: full, newton on, ghost
      pair build: skip/ghost
      stencil: none
      bin: none
  (3) pair lj/cut, perpetual, skip from (5)
      attributes: half, newton on, cut 13
      pair build: skip
      stencil: none
      bin: none
  (4) neighbor class addition, perpetual
      attributes: full, newton on, ghost
      pair build: full/bin/ghost
      stencil: full/ghost/bin/3d
      bin: standard
  (5) neighbor class addition, perpetual
      attributes: half, newton on, cut 13
      pair build: half/bin/atomonly/newton
      stencil: half/bin/3d
      bin: standard
Per MPI rank memory allocation (min/avg/max) = 8.489 | 8.68 | 9.253 Mbytes
   Step          Temp          E_pair         E_mol          TotEng         Press     
         0   0             -20086.427      0             -20086.427      30.842369    
         1   0             -20086.648      0             -20086.648      30.157447    
Loop time of 1.501 on 12 procs for 1 steps with 2720 atoms

35.7% CPU use with 12 MPI tasks x 1 OpenMP threads

Minimization stats:
  Stopping criterion = energy tolerance
  Energy initial, next-to-last, final = 
     -20086.4268837749  -20086.4268837749  -20086.6478628182
  Force two-norm initial, final = 7.7782112 1.6681994
  Force max component initial, final = 0.14888908 0.031904291
  Final line search alpha, max atom move = 0.67164094 0.021428228
  Iterations, force evaluations = 1 2

MPI task timing breakdown:
Section |  min time  |  avg time  |  max time  |%varavg| %total
---------------------------------------------------------------
Pair    | 0.0079862  | 0.0091564  | 0.010724   |   0.7 |  0.61
Neigh   | 0          | 0          | 0          |   0.0 |  0.00
Comm    | 0.2551     | 0.29419    | 0.35002    |   5.3 | 19.60
Output  | 0          | 0          | 0          |   0.0 |  0.00
Modify  | 0          | 0          | 0          |   0.0 |  0.00
Other   |            | 1.198      |            |       | 79.79

Nlocal:        226.667 ave         257 max         196 min
Histogram: 3 0 0 0 2 4 0 0 0 3
Nghost:        1026.67 ave        1064 max         991 min
Histogram: 2 0 1 2 2 0 2 1 1 1
Neighs:              0 ave           0 max           0 min
Histogram: 12 0 0 0 0 0 0 0 0 0

Total # of neighbors = 0
Ave neighs/atom = 0
Neighbor list builds = 0
Dangerous builds = 0
#6----define computes------
variable nums equal count(all) #计算原子数目
variable toval equal 13.369*13.369*lz #计算系统总体积，单层石墨烯厚度为0.335nm
variable vol equal ${toval} #体系的初始体积
variable vol equal 36838.7966439931 
variable vatom equal v_vol/v_nums #单个原子体积
compute 1 all stress/atom NULL #计算体系中单原子应力
compute xalls all reduce sum c_1[1]
variable xstress equal (c_xalls)/(v_toval*10000)
compute yalls all reduce sum c_1[2]
variable ystress equal (c_yalls)/(v_toval*10000)
compute zalls all reduce sum c_1[3]
variable zstress equal (c_zalls)/(v_toval*10000)
#7---------relaxation-------------------------
timestep ${tstep}
timestep 0.001
#------------5 温度初始化------------------------------
velocity all create 300 4928459 dist gaussian units box
#------------------------------------------------------
dump   1 all atom 100 all-cy.lammpstrj
#fix    1 all npt temp 300 300  0.1 aniso 0 0  drag 1  #三个方向独立控压
fix  s all npt temp ${temperature} ${temperature} 0.1 y ${pressure} ${pressure} 10 x ${pressure} ${pressure} 10
fix  s all npt temp 300 ${temperature} 0.1 y ${pressure} ${pressure} 10 x ${pressure} ${pressure} 10
fix  s all npt temp 300 300 0.1 y ${pressure} ${pressure} 10 x ${pressure} ${pressure} 10
fix  s all npt temp 300 300 0.1 y 0 ${pressure} 10 x ${pressure} ${pressure} 10
fix  s all npt temp 300 300 0.1 y 0 0 10 x ${pressure} ${pressure} 10
fix  s all npt temp 300 300 0.1 y 0 0 10 x 0 ${pressure} 10
fix  s all npt temp 300 300 0.1 y 0 0 10 x 0 0 10
thermo                1000
thermo_modify       lost ignore
compute  2 all pe/atom
compute  pe all reduce sum c_2
variable PE equal "c_pe"
fix    pe all print 100 "${PE} " file PE.txt screen no
thermo  ${thermalstep}
thermo  100
#thermo_style  custom step pe ke etotal lx ly lz
run   ${relaxtime}
run   0
Per MPI rank memory allocation (min/avg/max) = 9.114 | 9.305 | 9.878 Mbytes
   Step          Temp          E_pair         E_mol          TotEng         Press          Volume    
         1   300           -20086.648      0             -19981.21       43.817319      8244561.8    
Loop time of 0.0603316 on 12 procs for 0 steps with 2720 atoms

29.8% CPU use with 12 MPI tasks x 1 OpenMP threads

MPI task timing breakdown:
Section |  min time  |  avg time  |  max time  |%varavg| %total
---------------------------------------------------------------
Pair    | 0          | 0          | 0          |   0.0 |  0.00
Neigh   | 0          | 0          | 0          |   0.0 |  0.00
Comm    | 0          | 0          | 0          |   0.0 |  0.00
Output  | 0          | 0          | 0          |   0.0 |  0.00
Modify  | 0          | 0          | 0          |   0.0 |  0.00
Other   |            | 0.06033    |            |       |100.00

Nlocal:        226.667 ave         228 max         224 min
Histogram: 4 0 0 0 0 0 0 0 0 8
Nghost:        1026.67 ave        1036 max        1020 min
Histogram: 4 0 4 0 0 0 0 0 0 4
Neighs:              0 ave           0 max           0 min
Histogram: 12 0 0 0 0 0 0 0 0 0

Total # of neighbors = 0
Ave neighs/atom = 0
Neighbor list builds = 0
Dangerous builds = 0
#8 -------tension-----------------------------
unfix s
undump  1
unfix  pe
reset_timestep 0
fix avestress all ave/atom 1 ${dumpstep} ${dumpstep} c_1[1] c_1[2] c_1[3] c_1[4] c_1[5] c_1[6]
fix avestress all ave/atom 1 1000 ${dumpstep} c_1[1] c_1[2] c_1[3] c_1[4] c_1[5] c_1[6]
fix avestress all ave/atom 1 1000 1000 c_1[1] c_1[2] c_1[3] c_1[4] c_1[5] c_1[6]

#-----calculation of strain and Cumulative compression--------
variable                tmp equal "lz"
variable                L0 equal ${tmp}
variable                L0 equal 206.114046101
variable                strain equal "(lz - v_L0)/v_L0"
variable                Cumulativels equal "(lz - v_L0)/10"
fix Step all print 100 "${strain} ${Cumulativels} ${zstress}" file grapoten.txt screen no

dump 2 all custom ${dumpstep} tension.xyz type x y z f_avestress[1] f_avestress[2] f_avestress[3] f_avestress[4] f_avestress[5] f_avestress[6]
dump 2 all custom 1000 tension.xyz type x y z f_avestress[1] f_avestress[2] f_avestress[3] f_avestress[4] f_avestress[5] f_avestress[6]

fix  1 all npt temp ${temperature} ${temperature} 0.1 y ${pressure} ${pressure} 10 x ${pressure} ${pressure} 10
fix  1 all npt temp 300 ${temperature} 0.1 y ${pressure} ${pressure} 10 x ${pressure} ${pressure} 10
fix  1 all npt temp 300 300 0.1 y ${pressure} ${pressure} 10 x ${pressure} ${pressure} 10
fix  1 all npt temp 300 300 0.1 y 0 ${pressure} 10 x ${pressure} ${pressure} 10
fix  1 all npt temp 300 300 0.1 y 0 0 10 x ${pressure} ${pressure} 10
fix  1 all npt temp 300 300 0.1 y 0 0 10 x 0 ${pressure} 10
fix  1 all npt temp 300 300 0.1 y 0 0 10 x 0 0 10

thermo_style custom step pe ke etotal lx ly lz
WARNING: New thermo_style command, previous thermo_modify settings will be lost (src/output.cpp:903)
fix   2 all deform 1 z erate ${deformrate} remap x units box
fix   2 all deform 1 z erate 0.005 remap x units box
fix   3 all ave/time 2 500 1000 v_xstress v_ystress v_zstress file pressure.out
run   ${totaltime}
run   100000
WARNING: Dump 2 includes no atom IDs and is not sorted by ID. This may complicate post-processing tasks or visualization (src/dump.cpp:221)
Per MPI rank memory allocation (min/avg/max) = 10.61 | 10.8 | 11.38 Mbytes
   Step         PotEng         KinEng         TotEng           Lx             Ly             Lz      
         0  -20086.648      105.4375      -19981.21       200            200            206.11405    
       100  -20026.455      54.670718     -19971.785      200.00395      200.00251      206.2171     
       200  -20022.827      64.795345     -19958.032      200.00083      199.99875      206.32016    
       300  -20013.217      71.63067      -19941.587      199.99115      199.99134      206.42322    
       400  -20005.744      82.020122     -19923.724      199.99457      199.99892      206.52627    
       500  -19996.793      91.376533     -19905.416      199.98158      199.9935       206.62933    
       600  -19989.236      100.90941     -19888.326      199.97301      199.99592      206.73239    
       700  -19979.51       104.79737     -19874.713      199.96963      200.00576      206.83545    
       800  -19977.729      110.58361     -19867.145      199.94911      199.99996      206.9385     
       900  -19978.67       109.36065     -19869.309      199.94375      200.01068      207.04156    
      1000  -19982.366      105.5325      -19876.834      199.93245      200.01371      207.14462    
      1100  -19982.567      100.84405     -19881.722      199.91605      200.00914      207.24767    
      1200  -19981.713      100.90557     -19880.807      199.91524      200.01816      207.35073    
      1300  -19979.848      104.84619     -19875.002      199.90249      200.00962      207.45379    
      1400  -19979.656      110.37177     -19869.284      199.8977       200.00648      207.55684    
      1500  -19975.67       107.42564     -19868.245      199.8978       200.00571      207.6599     
      1600  -19979.041      106.66999     -19872.371      199.8872       199.992        207.76296    
      1700  -19982.363      105.70925     -19876.654      199.88879      199.99122      207.86602    
      1800  -19978.089      101.10358     -19876.985      199.88141      199.98348      207.96907    
      1900  -19980.155      107.40147     -19872.754      199.8728       199.97624      208.07213    
      2000  -19973.439      106.33876     -19867.1        199.86902      199.97767      208.17519    
      2100  -19971.095      106.15895     -19864.936      199.8535       199.9713       208.27824    
      2200  -19974.559      107.55519     -19867.004      199.84478      199.97393      208.3813     
      2300  -19975.394      104.36796     -19871.026      199.82954      199.97355      208.48436    
      2400  -19976.274      103.52011     -19872.754      199.81389      199.97383      208.58741    
      2500  -19973.808      103.96727     -19869.841      199.80182      199.97692      208.69047    
      2600  -19969.105      104.75773     -19864.347      199.78398      199.97316      208.79353    
      2700  -19967.234      106.7561      -19860.478      199.77413      199.97551      208.89659    
      2800  -19966.433      105.28409     -19861.149      199.76057      199.96927      208.99964    
      2900  -19970.375      106.04064     -19864.334      199.75079      199.96343      209.1027     
      3000  -19970.092      104.09553     -19865.997      199.74461      199.95831      209.20576    
      3100  -19969.049      104.47116     -19864.577      199.73279      199.94472      209.30881    
      3200  -19964.288      104.36162     -19859.926      199.73047      199.93948      209.41187    
      3300  -19963.005      107.00393     -19856.001      199.72041      199.92724      209.51493    
      3400  -19962.951      107.73158     -19855.22       199.7116       199.91709      209.61798    
      3500  -19962.633      105.35019     -19857.282      199.70435      199.91164      209.72104    
      3600  -19963.63       104.75046     -19858.879      199.68806      199.90092      209.8241     
      3700  -19963.44       106.15149     -19857.289      199.67823      199.90003      209.92716    
      3800  -19959.434      106.11975     -19853.314      199.66001      199.89473      210.03021    
      3900  -19957.101      107.37007     -19849.731      199.64196      199.89243      210.13327    
      4000  -19954.294      105.37445     -19848.919      199.62673      199.89378      210.23633    
      4100  -19955.934      106.13267     -19849.801      199.60334      199.88785      210.33938    
      4200  -19955.483      104.90216     -19850.581      199.58823      199.88912      210.44244    
      4300  -19953.673      104.72796     -19848.945      199.56897      199.88348      210.5455     
      4400  -19948.881      103.94174     -19844.939      199.55189      199.87692      210.64856    
      4500  -19949.399      107.67575     -19841.724      199.54075      199.87299      210.75161    
      4600  -19947.414      106.72239     -19840.692      199.52297      199.85756      210.85467    
      4700  -19947.427      105.87732     -19841.55       199.51583      199.8502       210.95773    
      4800  -19949.144      107.16556     -19841.978      199.50295      199.83546      211.06078    
      4900  -19945.786      105.8301      -19839.956      199.49026      199.81957      211.16384    
      5000  -19939.796      103.61382     -19836.182      199.48355      199.81116      211.2669     
      5100  -19937.759      105.60809     -19832.151      199.46437      199.79376      211.36995    
      5200  -19937.334      106.82489     -19830.509      199.45288      199.7859       211.47301    
      5300  -19935.137      103.78609     -19831.351      199.43493      199.77619      211.57607    
      5400  -19936.575      104.49904     -19832.076      199.41162      199.76581      211.67913    
      5500  -19934.805      104.26787     -19830.537      199.39441      199.76373      211.78218    
      5600  -19932.204      105.88755     -19826.316      199.36654      199.75384      211.88524    
      5700  -19929.708      107.54437     -19822.163      199.34443      199.7512       211.9883     
      5800  -19926.057      105.37731     -19820.68       199.32087      199.74537      212.09135    
      5900  -19927.916      104.81961     -19823.096      199.29458      199.73458      212.19441    
      6000  -19925.619      102.89454     -19822.724      199.27619      199.72948      212.29747    
      6100  -19922.818      103.70724     -19819.11       199.25141      199.71361      212.40052    
      6200  -19918.788      104.21366     -19814.575      199.23448      199.7028       212.50358    
      6300  -19920.199      108.22002     -19811.979      199.21607      199.68801      212.60664    
      6400  -19916.972      106.00962     -19810.963      199.19508      199.6687       212.7097     
      6500  -19916.103      103.51407     -19812.589      199.18159      199.65569      212.81275    
      6600  -19917.069      103.60878     -19813.46       199.15893      199.63414      212.91581    
      6700  -19913.391      104.59514     -19808.796      199.14206      199.61923      213.01887    
      6800  -19911.87       107.70957     -19804.16       199.12207      199.60277      213.12192    
      6900  -19904.67       104.22367     -19800.446      199.09675      199.5849       213.22498    
      7000  -19904.777      107.25352     -19797.524      199.07556      199.57456      213.32804    
      7100  -19900.125      104.01859     -19796.106      199.04577      199.5589       213.43109    
      7200  -19900.612      103.53151     -19797.08       199.01851      199.54857      213.53415    
      7300  -19898.464      102.55673     -19795.907      198.98859      199.5383       213.63721    
      7400  -19895.112      104.26692     -19790.845      198.95616      199.5252       213.74027    
      7500  -19890.414      104.83517     -19785.579      198.92731      199.51528      213.84332    
      7600  -19888.588      105.02203     -19783.566      198.89408      199.49997      213.94638    
      7700  -19887.297      104.80515     -19782.492      198.86558      199.48588      214.04944    
      7800  -19886.35       105.14799     -19781.202      198.83687      199.46774      214.15249    
      7900  -19884.458      103.51601     -19780.942      198.80821      199.44728      214.25555    
      8000  -19883.652      101.71251     -19781.94       198.78352      199.42713      214.35861    
      8100  -19882.493      104.79706     -19777.696      198.75591      199.40182      214.46166    
      8200  -19877.26       105.65017     -19771.61       198.73092      199.37914      214.56472    
      8300  -19871.98       104.06239     -19767.918      198.70256      199.35353      214.66778    
      8400  -19870.933      106.18811     -19764.745      198.67445      199.32923      214.77084    
      8500  -19865.919      103.236       -19762.683      198.64424      199.30608      214.87389    
      8600  -19870.235      107.49736     -19762.738      198.61002      199.28289      214.97695    
      8700  -19866.087      103.6473      -19762.44       198.57632      199.26387      215.08001    
      8800  -19861.757      103.08687     -19758.67       198.53615      199.24247      215.18306    
      8900  -19859.981      108.2878      -19751.693      198.49751      199.22559      215.28612    
      9000  -19852.346      103.55833     -19748.788      198.45633      199.20689      215.38918    
      9100  -19852.686      105.61312     -19747.073      198.41254      199.18627      215.49224    
      9200  -19850.527      103.90936     -19746.618      198.37232      199.16927      215.59529    
      9300  -19850.835      104.17971     -19746.655      198.32794      199.14527      215.69835    
      9400  -19846.591      102.23874     -19744.353      198.28761      199.12282      215.80141    
      9500  -19843.515      107.13128     -19736.384      198.24769      199.09737      215.90446    
      9600  -19837.526      105.6939      -19731.833      198.20644      199.06778      216.00752    
      9700  -19835.826      106.61945     -19729.207      198.17029      199.03974      216.11058    
      9800  -19832.289      103.50724     -19728.781      198.12923      199.00503      216.21363    
      9900  -19832.051      103.92855     -19728.122      198.09242      198.97323      216.31669    
     10000  -19828.494      104.30796     -19724.186      198.05221      198.93894      216.41975    
     10100  -19823.063      106.98504     -19716.078      198.00982      198.90419      216.52281    
     10200  -19818.628      105.54599     -19713.082      197.96809      198.87349      216.62586    
     10300  -19816.486      104.03975     -19712.446      197.91872      198.8384       216.72892    
     10400  -19817.441      105.84185     -19711.599      197.87138      198.80982      216.83198    
     10500  -19813.701      105.01615     -19708.685      197.81835      198.77937      216.93503    
     10600  -19807.484      106.13861     -19701.345      197.76239      198.74948      217.03809    
     10700  -19803.739      107.88619     -19695.853      197.70846      198.72251      217.14115    
     10800  -19801.657      106.47961     -19695.177      197.64839      198.69075      217.2442     
     10900  -19800.506      105.80711     -19694.699      197.59227      198.66172      217.34726    
     11000  -19796.544      104.17163     -19692.373      197.53428      198.62824      217.45032    
     11100  -19793.478      104.99247     -19688.485      197.47666      198.59127      217.55338    
     11200  -19787.144      106.39442     -19680.75       197.42312      198.55554      217.65643    
     11300  -19785.505      109.39028     -19676.115      197.36594      198.51285      217.75949    
     11400  -19782.578      107.02431     -19675.554      197.31285      198.47201      217.86255    
     11500  -19779.271      104.60988     -19674.661      197.25714      198.42785      217.9656     
     11600  -19776.705      104.31824     -19672.387      197.20036      198.38228      218.06866    
     11700  -19774.295      105.71585     -19668.579      197.14482      198.3381       218.17172    
     11800  -19767.193      106.04371     -19661.149      197.08405      198.29148      218.27477    
     11900  -19763.26       107.48267     -19655.777      197.02416      198.24886      218.37783    
     12000  -19762.503      107.92103     -19654.582      196.95968      198.20415      218.48089    
     12100  -19757.362      104.32061     -19653.041      196.89218      198.16134      218.58395    
     12200  -19755.758      105.55528     -19650.203      196.82364      198.1211       218.687      
     12300  -19752.79       106.02043     -19646.77       196.75041      198.07807      218.79006    
     12400  -19749.596      106.72284     -19642.874      196.67823      198.0377       218.89312    
     12500  -19745.781      108.47623     -19637.305      196.60276      197.99519      218.99617    
     12600  -19740.444      108.05983     -19632.385      196.52777      197.95101      219.09923    
     12700  -19737.491      106.65864     -19630.832      196.45432      197.90586      219.20229    
     12800  -19735.228      104.86339     -19630.364      196.37905      197.85652      219.30535    
     12900  -19732.908      105.92797     -19626.98       196.30636      197.80714      219.4084     
     13000  -19725.723      104.08087     -19621.642      196.23351      197.75426      219.51146    
     13100  -19721.036      104.22847     -19616.808      196.16085      197.69944      219.61452    
     13200  -19717.78       104.71416     -19613.065      196.0891       197.64374      219.71757    
     13300  -19716.079      106.51054     -19609.569      196.01553      197.58581      219.82063    
     13400  -19709.269      103.11222     -19606.157      195.94196      197.52939      219.92369    
     13500  -19706.098      102.67364     -19603.425      195.86589      197.47271      220.02674    
     13600  -19706.163      105.34064     -19600.823      195.78783      197.4165       220.1298     
     13700  -19702.041      105.7652      -19596.276      195.70808      197.36201      220.23286    
     13800  -19693.427      104.50583     -19588.922      195.62536      197.30826      220.33592    
     13900  -19689.666      106.26246     -19583.403      195.54115      197.25601      220.43897    
     14000  -19686.894      106.55639     -19580.338      195.45486      197.20331      220.54203    
     14100  -19683.102      103.38984     -19579.712      195.36862      197.15165      220.64509    
     14200  -19682.985      105.13535     -19577.849      195.2805       197.09881      220.74814    
     14300  -19678.823      105.9054      -19572.917      195.19298      197.04444      220.8512     
     14400  -19672.154      105.74467     -19566.41       195.10791      196.98949      220.95426    
     14500  -19667.176      107.04567     -19560.131      195.02164      196.93076      221.05731    
     14600  -19661.547      106.09634     -19555.45       194.93867      196.87216      221.16037    
     14700  -19659.15       105.68079     -19553.47       194.85559      196.81018      221.26343    
     14800  -19657.448      104.40523     -19553.043      194.77302      196.74757      221.36649    
     14900  -19649.803      101.3129      -19548.49       194.69224      196.68531      221.46954    
     15000  -19647.376      105.95535     -19541.42       194.60904      196.62006      221.5726     
     15100  -19641.69       105.61946     -19536.07       194.52773      196.55834      221.67566    
     15200  -19637.405      105.27841     -19532.126      194.44327      196.49572      221.77871    
     15300  -19634.785      105.76866     -19529.016      194.35752      196.43415      221.88177    
     15400  -19630.857      103.57753     -19527.28       194.27289      196.37644      221.98483    
     15500  -19628.11       102.2104      -19525.899      194.18288      196.31661      222.08788    
     15600  -19623.283      104.3746      -19518.908      194.09614      196.26212      222.19094    
     15700  -19618.055      106.65564     -19511.399      194.00632      196.206        222.294      
     15800  -19612.148      105.86326     -19506.285      193.91623      196.15071      222.39706    
     15900  -19606.602      105.24061     -19501.361      193.82891      196.09706      222.50011    
     16000  -19603.336      105.88165     -19497.454      193.73947      196.03904      222.60317    
     16100  -19599.661      104.52461     -19495.137      193.65532      195.98448      222.70623    
     16200  -19595.164      102.3371      -19492.826      193.5697       195.92541      222.80928    
     16300  -19590.327      103.29401     -19487.033      193.48736      195.86606      222.91234    
     16400  -19586.674      108.32013     -19478.354      193.40857      195.80744      223.0154     
     16500  -19578.264      105.07041     -19473.194      193.32712      195.74435      223.11845    
     16600  -19576.59       106.59636     -19469.994      193.25136      195.68543      223.22151    
     16700  -19572.906      104.70256     -19468.203      193.17288      195.62361      223.32457    
     16800  -19570.99       104.80681     -19466.183      193.0946       195.56368      223.42763    
     16900  -19565.678      104.08491     -19461.593      193.01832      195.50651      223.53068    
     17000  -19558.698      106.44806     -19452.25       192.93803      195.4478       223.63374    
     17100  -19553.787      108.29594     -19445.491      192.86052      195.39409      223.7368     
     17200  -19548.557      107.93139     -19440.625      192.78113      195.34042      223.83985    
     17300  -19546.412      107.70171     -19438.71       192.70139      195.28766      223.94291    
     17400  -19541.702      104.96653     -19436.735      192.62325      195.23758      224.04597    
     17500  -19534.489      103.05635     -19431.432      192.544        195.18725      224.14903    
     17600  -19531.316      106.41756     -19424.899      192.46648      195.13751      224.25208    
     17700  -19527.324      107.8936      -19419.43       192.39141      195.08824      224.35514    
     17800  -19520.092      105.75359     -19414.338      192.31631      195.03793      224.4582     
     17900  -19516.002      106.57293     -19409.429      192.24423      194.98768      224.56125    
     18000  -19510.993      106.89161     -19404.101      192.17412      194.93646      224.66431    
     18100  -19505.094      106.82011     -19398.274      192.10527      194.8851       224.76737    
     18200  -19502.482      108.95392     -19393.528      192.03877      194.8343       224.87042    
     18300  -19497.361      106.54897     -19390.812      191.97271      194.78178      224.97348    
     18400  -19490.805      102.82356     -19387.981      191.90869      194.73123      225.07654    
     18500  -19485.976      103.65433     -19382.322      191.84402      194.68127      225.1796     
     18600  -19477.692      105.05548     -19372.637      191.77965      194.6319       225.28265    
     18700  -19475.97       108.86095     -19367.11       191.71664      194.58447      225.38571    
     18800  -19471.669      107.32558     -19364.343      191.65183      194.53758      225.48877    
     18900  -19467.028      105.21827     -19361.81       191.58775      194.49333      225.59182    
     19000  -19462.182      105.27279     -19356.91       191.52338      194.44971      225.69488    
     19100  -19456.274      105.41314     -19350.861      191.45962      194.40792      225.79794    
     19200  -19450.532      105.37593     -19345.156      191.39591      194.36713      225.90099    
     19300  -19446.428      106.90559     -19339.522      191.33276      194.32645      226.00405    
     19400  -19439.33       105.00443     -19334.325      191.27215      194.28651      226.10711    
     19500  -19433.045      103.36219     -19329.683      191.21151      194.24548      226.21017    
     19600  -19428.399      102.94146     -19325.458      191.15322      194.20511      226.31322    
     19700  -19427.855      107.64609     -19320.209      191.09738      194.16431      226.41628    
     19800  -19419.927      106.75518     -19313.172      191.04204      194.12205      226.51934    
     19900  -19414.076      108.56408     -19305.512      190.9891       194.08147      226.62239    
     20000  -19406.316      106.35369     -19299.962      190.93638      194.03981      226.72545    
     20100  -19403.442      104.37096     -19299.071      190.88554      193.99887      226.82851    
     20200  -19397.928      102.34439     -19295.584      190.83424      193.95794      226.93156    
     20300  -19392.338      103.77582     -19288.562      190.78361      193.91878      227.03462    
     20400  -19385.841      105.17675     -19280.664      190.73318      193.88017      227.13768    
     20500  -19382.75       108.02349     -19274.726      190.68186      193.84172      227.24074    
     20600  -19374.732      104.6963      -19270.036      190.63221      193.80618      227.34379    
     20700  -19369.16       103.73287     -19265.427      190.58026      193.76988      227.44685    
     20800  -19366.635      106.21018     -19260.425      190.53022      193.73575      227.54991    
     20900  -19359.413      104.07885     -19255.334      190.47977      193.70175      227.65296    
     21000  -19357.444      107.85304     -19249.591      190.42912      193.66809      227.75602    
     21100  -19346.163      104.03902     -19242.124      190.38098      193.63563      227.85908    
     21200  -19342.608      107.08076     -19235.528      190.33213      193.60114      227.96213    
     21300  -19338.563      106.41563     -19232.147      190.28547      193.56876      228.06519    
     21400  -19335.188      105.25473     -19229.933      190.23925      193.53475      228.16825    
     21500  -19328.993      104.44458     -19224.549      190.19443      193.50036      228.27131    
     21600  -19322.076      105.04589     -19217.03       190.15135      193.46695      228.37436    
     21700  -19316.29       106.51757     -19209.772      190.10772      193.43235      228.47742    
     21800  -19309.505      105.0277      -19204.477      190.06652      193.39959      228.58048    
     21900  -19305.382      105.62199     -19199.76       190.02389      193.36506      228.68353    
     22000  -19298.706      103.55392     -19195.152      189.98195      193.3327       228.78659    
     22100  -19294.994      105.57644     -19189.417      189.94015      193.30118      228.88965    
     22200  -19285.665      104.62139     -19181.043      189.89692      193.26859      228.99271    
     22300  -19278.322      104.76908     -19173.553      189.85604      193.23934      229.09576    
     22400  -19274.694      105.51097     -19169.183      189.81233      193.20789      229.19882    
     22500  -19271.415      103.63466     -19167.78       189.77097      193.17853      229.30188    
     22600  -19266.086      103.49465     -19162.591      189.72913      193.14901      229.40493    
     22700  -19260.694      105.52558     -19155.168      189.68658      193.11897      229.50799    
     22800  -19254.753      107.18067     -19147.572      189.64646      193.09129      229.61105    
     22900  -19247.908      106.72182     -19141.186      189.60472      193.06017      229.7141     
     23000  -19240.384      104.2923      -19136.091      189.56553      193.03118      229.81716    
     23100  -19235.465      104.68962     -19130.775      189.52624      193.00167      229.92022    
     23200  -19230.127      104.90293     -19125.224      189.48648      192.97081      230.02328    
     23300  -19224.732      104.83393     -19119.898      189.44954      192.94204      230.12633    
     23400  -19219.052      104.59937     -19114.453      189.41084      192.91139      230.22939    
     23500  -19214.419      105.85429     -19108.565      189.37373      192.88228      230.33245    
     23600  -19206.549      106.05413     -19100.495      189.33655      192.85325      230.4355     
     23700  -19198.274      105.80228     -19092.472      189.29858      192.82375      230.53856    
     23800  -19193.226      105.35715     -19087.869      189.26175      192.79577      230.64162    
     23900  -19191.748      105.501       -19086.247      189.22364      192.76632      230.74467    
     24000  -19183.979      103.52964     -19080.449      189.18614      192.73831      230.84773    
     24100  -19176.09       103.38789     -19072.702      189.14874      192.71102      230.95079    
     24200  -19169.584      104.63974     -19064.944      189.11033      192.68249      231.05385    
     24300  -19163.879      105.58643     -19058.293      189.07337      192.65544      231.1569     
     24400  -19158.541      105.85789     -19052.683      189.03599      192.6276       231.25996    
     24500  -19154.833      107.01108     -19047.822      188.99825      192.59893      231.36302    
     24600  -19147.418      103.26246     -19044.155      188.96226      192.57168      231.46607    
     24700  -19144.677      102.57467     -19042.102      188.92499      192.54225      231.56913    
     24800  -19137.359      103.73002     -19033.629      188.88944      192.51423      231.67219    
     24900  -19130.607      106.83611     -19023.771      188.85359      192.48565      231.77524    
     25000  -19121.625      105.6937      -19015.931      188.8178       192.45706      231.8783     
     25100  -19116.611      107.40287     -19009.208      188.78274      192.42896      231.98136    
     25200  -19110.559      106.51626     -19004.043      188.74677      192.40038      232.08442    
     25300  -19103.971      102.30559     -19001.666      188.7117       192.37303      232.18747    
     25400  -19099.686      103.66637     -18996.019      188.67542      192.34512      232.29053    
     25500  -19091.925      105.08491     -18986.84       188.6393       192.31794      232.39359    
     25600  -19088.191      109.3257      -18978.865      188.60332      192.2919       232.49664    
     25700  -19076.726      103.59046     -18973.135      188.56591      192.26456      232.5997     
     25800  -19071.396      103.50436     -18967.891      188.53043      192.23843      232.70276    
     25900  -19066.671      103.98165     -18962.689      188.49328      192.21033      232.80582    
     26000  -19061.449      104.89361     -18956.556      188.45795      192.1839       232.90887    
     26100  -19051.688      104.13947     -18947.549      188.42184      192.15559      233.01193    
     26200  -19045.748      106.74992     -18938.998      188.38696      192.12743      233.11499    
     26300  -19040.934      107.17626     -18933.758      188.35212      192.09925      233.21804    
     26400  -19035.014      103.48206     -18931.532      188.31619      192.0698       233.3211     
     26500  -19031.921      106.08487     -18925.836      188.2822       192.04229      233.42416    
     26600  -19023.822      105.67592     -18918.146      188.24608      192.01234      233.52721    
     26700  -19015.684      105.98503     -18909.699      188.2122       191.98511      233.63027    
     26800  -19007.629      105.35055     -18902.279      188.1761       191.9563       233.73333    
     26900  -19004.009      106.50287     -18897.506      188.14076      191.92864      233.83639    
     27000  -18997.047      101.6049      -18895.442      188.10561      191.9011       233.93944    
     27100  -18992.48       104.10835     -18888.372      188.069        191.87271      234.0425     
     27200  -18985.514      107.00851     -18878.505      188.03402      191.84663      234.14556    
     27300  -18976.228      105.40412     -18870.824      187.99693      191.8182       234.24861    
     27400  -18968.291      103.9994      -18864.292      187.96131      191.79175      234.35167    
     27500  -18964.475      105.59871     -18858.876      187.92444      191.76416      234.45473    
     27600  -18958.428      102.48059     -18855.947      187.88787      191.73655      234.55778    
     27700  -18953.311      102.93671     -18850.375      187.85218      191.70913      234.66084    
     27800  -18945.175      105.25523     -18839.92       187.81578      191.67999      234.7639     
     27900  -18937.266      105.63778     -18831.628      187.7807       191.65163      234.86696    
     28000  -18928.229      103.45855     -18824.771      187.74519      191.6222       234.97001    
     28100  -18927.577      108.78607     -18818.791      187.71016      191.59234      235.07307    
     28200  -18919.812      104.77876     -18815.033      187.67555      191.56235      235.17613    
     28300  -18914.132      103.716       -18810.416      187.64051      191.53193      235.27918    
     28400  -18903.965      102.56351     -18801.402      187.60548      191.50173      235.38224    
     28500  -18897.872      106.82559     -18791.046      187.57082      191.47198      235.4853     
     28600  -18890.438      105.69683     -18784.741      187.53502      191.44203      235.58835    
     28700  -18886.014      106.32405     -18779.69       187.4995       191.41359      235.69141    
     28800  -18879.308      103.62549     -18775.682      187.46231      191.38406      235.79447    
     28900  -18871.81       101.48679     -18770.323      187.42606      191.35625      235.89753    
     29000  -18866.098      106.50278     -18759.595      187.38811      191.32763      236.00058    
     29100  -18857.026      106.65027     -18750.375      187.35123      191.30044      236.10364    
     29200  -18850.546      106.24485     -18744.301      187.31331      191.27215      236.2067     
     29300  -18845.701      105.53765     -18740.164      187.27542      191.2433       236.30975    
     29400  -18840.106      104.8572      -18735.249      187.23878      191.21538      236.41281    
     29500  -18831.649      104.98274     -18726.666      187.2006       191.18539      236.51587    
     29600  -18824.911      109.14643     -18715.764      187.16413      191.15594      236.61892    
     29700  -18815.464      106.38233     -18709.082      187.12752      191.12545      236.72198    
     29800  -18810.601      105.37726     -18705.223      187.09043      191.09411      236.82504    
     29900  -18804.672      104.36251     -18700.31       187.05494      191.06356      236.9281     
     30000  -18797.959      104.70676     -18693.252      187.01832      191.03087      237.03115    
     30100  -18791.64       105.95066     -18685.689      186.98357      190.99965      237.13421    
     30200  -18782.939      104.48192     -18678.457      186.94699      190.96718      237.23727    
     30300  -18777.373      106.36706     -18671.006      186.91087      190.93591      237.34032    
     30400  -18768.475      105.5289      -18662.946      186.87464      190.90458      237.44338    
     30500  -18761.02       106.46021     -18654.559      186.83708      190.87293      237.54644    
     30600  -18751.3        105.19024     -18646.11       186.80049      190.84316      237.6495     
     30700  -18748.642      107.50796     -18641.134      186.76126      190.81218      237.75255    
     30800  -18745.175      107.30298     -18637.872      186.72307      190.78345      237.85561    
     30900  -18734.853      103.44342     -18631.41       186.68335      190.75379      237.95867    
     31000  -18728.259      105.83368     -18622.425      186.64362      190.725        238.06172    
     31100  -18720.713      107.6314      -18613.081      186.60376      190.69614      238.16478    
     31200  -18713.295      107.87545     -18605.42       186.56338      190.66586      238.26784    
     31300  -18706.678      104.74451     -18601.933      186.52408      190.63621      238.37089    
     31400  -18700.188      102.48702     -18597.701      186.48459      190.60539      238.47395    
     31500  -18694.94       105.01046     -18589.929      186.44518      190.57363      238.57701    
     31600  -18686.06       106.35774     -18579.702      186.40776      190.542        238.68007    
     31700  -18677.33       105.86295     -18571.467      186.36933      190.50738      238.78312    
     31800  -18672.189      106.84231     -18565.347      186.33391      190.47476      238.88618    
     31900  -18665.515      103.07549     -18562.439      186.29576      190.43879      238.98924    
     32000  -18658.511      101.1095      -18557.402      186.26044      190.40524      239.09229    
     32100  -18652.751      104.36646     -18548.384      186.22347      190.37027      239.19535    
     32200  -18643.222      104.14668     -18539.076      186.18554      190.33523      239.29841    
     32300  -18637.733      107.33313     -18530.399      186.14972      190.30333      239.40146    
     32400  -18628.726      106.44765     -18522.278      186.10836      190.26745      239.50452    
     32500  -18620.754      105.38769     -18515.366      186.07231      190.23884      239.60758    
     32600  -18616.624      104.99066     -18511.633      186.02865      190.20395      239.71064    
     32700  -18608.917      102.67491     -18506.242      185.9898       190.17545      239.81369    
     32800  -18600.386      104.00197     -18496.384      185.94703      190.14411      239.91675    
     32900  -18593.518      106.89038     -18486.627      185.90371      190.11301      240.01981    
     33000  -18587.156      107.92574     -18479.23       185.86353      190.08479      240.12286    
     33100  -18576.473      103.20929     -18473.264      185.81803      190.0498       240.22592    
     33200  -18572.064      103.1657      -18468.898      185.78021      190.02157      240.32898    
     33300  -18566.863      101.68965     -18465.173      185.73569      189.98471      240.43203    
     33400  -18559.545      101.96349     -18457.581      185.69831      189.95355      240.53509    
     33500  -18549.267      103.72805     -18445.539      185.65805      189.91713      240.63815    
     33600  -18541.601      105.00938     -18436.591      185.61947      189.88142      240.74121    
     33700  -18536.451      107.73777     -18428.713      185.58282      189.84645      240.84426    
     33800  -18528.661      106.35264     -18422.308      185.54274      189.80771      240.94732    
     33900  -18523.118      104.90767     -18418.211      185.50707      189.77381      241.05038    
     34000  -18515.721      103.03918     -18412.682      185.46663      189.73522      241.15343    
     34100  -18509.574      107.26884     -18402.305      185.42927      189.7013       241.25649    
     34200  -18498.233      106.22493     -18392.008      185.38864      189.66535      241.35955    
     34300  -18492.739      108.18686     -18384.552      185.34823      189.63115      241.46261    
     34400  -18484.844      105.95972     -18378.884      185.30752      189.59846      241.56566    
     34500  -18476.843      102.65806     -18374.185      185.26398      189.56415      241.66872    
     34600  -18471.422      103.14495     -18368.277      185.22193      189.53268      241.77178    
     34700  -18461.868      104.69255     -18357.176      185.17708      189.49984      241.87483    
     34800  -18453.709      106.49847     -18347.211      185.13346      189.4685       241.97789    
     34900  -18446.432      105.85861     -18340.574      185.08954      189.43622      242.08095    
     35000  -18440.923      104.87113     -18336.051      185.04509      189.40231      242.184      
     35100  -18433.677      103.07633     -18330.6        185.00326      189.37003      242.28706    
     35200  -18427.944      106.42534     -18321.519      184.95912      189.33367      242.39012    
     35300  -18416.878      107.53588     -18309.342      184.92         189.29992      242.49318    
     35400  -18409.077      105.93641     -18303.14       184.87877      189.26152      242.59623    
     35500  -18406.8        108.12334     -18298.676      184.83959      189.22428      242.69929    
     35600  -18398.251      105.41654     -18292.835      184.8007       189.18671      242.80235    
     35700  -18390.031      105.5098      -18284.521      184.76059      189.14744      242.9054     
     35800  -18379.755      107.03002     -18272.725      184.72352      189.11113      243.00846    
     35900  -18371.433      106.82266     -18264.61       184.68193      189.07114      243.11152    
     36000  -18364.793      105.4632      -18259.33       184.64342      189.03559      243.21457    
     36100  -18356.526      103.03225     -18253.493      184.601        188.99812      243.31763    
     36200  -18350.987      104.95917     -18246.027      184.55925      188.96261      243.42069    
     36300  -18345.516      107.71089     -18237.805      184.51655      188.92789      243.52375    
     36400  -18334.836      109.00976     -18225.827      184.47152      188.8928       243.6268     
     36500  -18327.437      110.47554     -18216.961      184.42718      188.86053      243.72986    
     36600  -18318.184      105.10025     -18213.084      184.3806       188.82699      243.83292    
     36700  -18314.309      106.40163     -18207.908      184.33542      188.79434      243.93597    
     36800  -18308.535      106.90963     -18201.625      184.28956      188.76057      244.03903    
     36900  -18299.489      104.68924     -18194.8        184.24481      188.72711      244.14209    
     37000  -18291.332      105.20477     -18186.127      184.20006      188.69204      244.24514    
     37100  -18282.371      107.33149     -18175.039      184.15765      188.65685      244.3482     
     37200  -18275.077      108.04455     -18167.032      184.11535      188.61929      244.45126    
     37300  -18266.874      104.04947     -18162.824      184.07486      188.5819       244.55432    
     37400  -18261.688      104.38511     -18157.303      184.03404      188.54264      244.65737    
     37500  -18252.165      103.02188     -18149.143      183.99527      188.50372      244.76043    
     37600  -18244.319      104.42276     -18139.896      183.95611      188.46376      244.86349    
     37700  -18238.953      108.61709     -18130.336      183.91643      188.424        244.96654    
     37800  -18229.041      108.30042     -18120.74       183.87678      188.38512      245.0696     
     37900  -18218.526      107.62209     -18110.904      183.83581      188.34608      245.17266    
     38000  -18211.922      105.99075     -18105.931      183.79426      188.30884      245.27571    
     38100  -18207.25       105.36024     -18101.89       183.75034      188.27154      245.37877    
     38200  -18200.991      105.47732     -18095.514      183.70691      188.2369       245.48183    
     38300  -18192.191      104.21762     -18087.974      183.66099      188.20164      245.58489    
     38400  -18183.188      105.11311     -18078.075      183.61552      188.16827      245.68794    
     38500  -18174.333      106.84292     -18067.491      183.56906      188.13472      245.791      
     38600  -18169.129      108.3934      -18060.736      183.52233      188.10134      245.89406    
     38700  -18157.561      100.56134     -18057          183.47603      188.06843      245.99711    
     38800  -18156.754      106.66858     -18050.086      183.42982      188.03436      246.10017    
     38900  -18145.112      103.56057     -18041.551      183.38527      187.99976      246.20323    
     39000  -18137.58       106.08815     -18031.492      183.34168      187.96407      246.30629    
     39100  -18128.995      106.48799     -18022.507      183.29886      187.92703      246.40934    
     39200  -18123.375      106.27059     -18017.105      183.25814      187.88963      246.5124     
     39300  -18116.254      103.01299     -18013.241      183.21755      187.84989      246.61546    
     39400  -18109.016      104.08674     -18004.929      183.17897      187.81002      246.71851    
     39500  -18099.343      105.24294     -17994.1        183.13967      187.76881      246.82157    
     39600  -18092.965      107.82716     -17985.138      183.10114      187.72881      246.92463    
     39700  -18084.835      106.9218      -17977.914      183.06176      187.68805      247.02768    
     39800  -18077.699      106.21189     -17971.487      183.02192      187.64755      247.13074    
     39900  -18070.796      105.32351     -17965.472      182.98165      187.60888      247.2338     
     40000  -18061.958      101.04405     -17960.914      182.9391       187.57076      247.33686    
     40100  -18055.575      103.52646     -17952.048      182.89652      187.53539      247.43991    
     40200  -18045.224      104.55927     -17940.665      182.8512       187.49959      247.54297    
     40300  -18037.156      105.71527     -17931.441      182.80676      187.46648      247.64603    
     40400  -18031.642      107.93774     -17923.705      182.75977      187.4326       247.74908    
     40500  -18021.41       104.27133     -17917.139      182.714        187.40116      247.85214    
     40600  -18017.842      104.65635     -17913.186      182.66649      187.36797      247.9552     
     40700  -18009.704      103.83709     -17905.867      182.6218       187.33615      248.05825    
     40800  -18001.137      106.53311     -17894.604      182.57624      187.30168      248.16131    
     40900  -17991.546      106.37104     -17885.175      182.53321      187.26734      248.26437    
     41000  -17982.135      104.86126     -17877.274      182.49097      187.23176      248.36743    
     41100  -17978.574      109.27157     -17869.303      182.44972      187.19408      248.47048    
     41200  -17967.372      105.88482     -17861.487      182.41056      187.15552      248.57354    
     41300  -17960.784      106.50054     -17854.284      182.37215      187.1153       248.6766     
     41400  -17950.51       103.64706     -17846.863      182.33431      187.07473      248.77965    
     41500  -17943.796      104.61249     -17839.183      182.29695      187.034        248.88271    
     41600  -17937.095      106.45042     -17830.645      182.25892      186.99276      248.98577    
     41700  -17929.004      107.63179     -17821.372      182.22169      186.95319      249.08882    
     41800  -17919.075      106.47261     -17812.602      182.18216      186.91334      249.19188    
     41900  -17911.344      104.25945     -17807.085      182.14205      186.87608      249.29494    
     42000  -17906.489      104.24215     -17802.247      182.10054      186.84001      249.398      
     42100  -17900.017      105.4741      -17794.543      182.05765      186.80522      249.50105    
     42200  -17887.742      104.35859     -17783.384      182.01462      186.77241      249.60411    
     42300  -17880.483      108.06637     -17772.417      181.9692       186.73892      249.70717    
     42400  -17872.884      107.27774     -17765.606      181.92588      186.7088       249.81022    
     42500  -17865.786      105.2999      -17760.486      181.87938      186.67622      249.91328    
     42600  -17857.666      103.63749     -17754.029      181.83601      186.64633      250.01634    
     42700  -17849.878      104.2684      -17745.61       181.79046      186.6129       250.11939    
     42800  -17840.467      107.2171      -17733.25       181.7488       186.58145      250.22245    
     42900  -17833.053      108.31018     -17724.743      181.70609      186.54609      250.32551    
     43000  -17825.673      106.78156     -17718.891      181.66578      186.51091      250.42857    
     43100  -17816.941      104.17148     -17712.769      181.62691      186.4746       250.53162    
     43200  -17809.607      104.2075      -17705.399      181.58818      186.43607      250.63468    
     43300  -17801.477      104.39696     -17697.08       181.55222      186.39807      250.73774    
     43400  -17793.24       104.53871     -17688.701      181.51476      186.35743      250.84079    
     43500  -17788.804      108.20766     -17680.597      181.48039      186.31968      250.94385    
     43600  -17777.919      105.00772     -17672.911      181.44232      186.27921      251.04691    
     43700  -17769.746      104.58702     -17665.159      181.40663      186.24245      251.14997    
     43800  -17765.932      108.77811     -17657.154      181.36832      186.20434      251.25302    
     43900  -17753.59       104.59151     -17648.999      181.33105      186.16918      251.35608    
     44000  -17746.447      104.22765     -17642.219      181.29102      186.13368      251.45914    
     44100  -17740.447      104.37203     -17636.075      181.25129      186.10105      251.56219    
     44200  -17730.731      102.97072     -17627.76       181.20982      186.06906      251.66525    
     44300  -17720.805      104.99232     -17615.813      181.16785      186.03816      251.76831    
     44400  -17712.677      106.01494     -17606.662      181.12558      186.00767      251.87136    
     44500  -17707.06       107.08517     -17599.975      181.08292      185.9768       251.97442    
     44600  -17698.291      103.93385     -17594.357      181.04114      185.94716      252.07748    
     44700  -17693.708      106.58166     -17587.127      180.9986       185.91555      252.18054    
     44800  -17683.374      104.8835      -17578.49       180.95813      185.88459      252.28359    
     44900  -17673.886      104.59299     -17569.293      180.91832      185.8512       252.38665    
     45000  -17667.706      107.49158     -17560.215      180.88072      185.8175       252.48971    
     45100  -17655.891      104.06731     -17551.824      180.84371      185.78199      252.59276    
     45200  -17652.202      106.79812     -17545.404      180.80783      185.74589      252.69582    
     45300  -17643.076      103.06424     -17540.012      180.77359      185.70965      252.79888    
     45400  -17635.623      103.20735     -17532.415      180.73901      185.6714       252.90193    
     45500  -17627.084      105.84678     -17521.237      180.70673      185.63496      253.00499    
     45600  -17617.145      106.77237     -17510.373      180.67174      185.59627      253.10805    
     45700  -17609.742      106.67995     -17503.062      180.6396       185.56184      253.21111    
     45800  -17603.571      106.34705     -17497.224      180.60324      185.5252       253.31416    
     45900  -17594.008      103.73539     -17490.272      180.56912      185.49249      253.41722    
     46000  -17584.747      102.89573     -17481.852      180.53153      185.45888      253.52028    
     46100  -17578.659      105.49222     -17473.167      180.49414      185.42794      253.62333    
     46200  -17570.472      106.56084     -17463.912      180.45506      185.39812      253.72639    
     46300  -17562.742      109.1828      -17453.559      180.41444      185.36863      253.82945    
     46400  -17553.376      108.82988     -17444.546      180.37569      185.34145      253.9325     
     46500  -17544.24       104.01276     -17440.227      180.33403      185.31096      254.03556    
     46600  -17540.223      105.92054     -17434.302      180.29623      185.28429      254.13862    
     46700  -17531.201      104.85518     -17426.345      180.25524      185.25321      254.24168    
     46800  -17522.228      105.67893     -17416.549      180.21872      185.22553      254.34473    
     46900  -17511.323      106.56871     -17404.754      180.18013      185.19334      254.44779    
     47000  -17502.764      106.59651     -17396.168      180.14533      185.16243      254.55085    
     47100  -17497.897      105.2262      -17392.67       180.11089      185.1294       254.6539     
     47200  -17489.207      103.98333     -17385.224      180.07774      185.09545      254.75696    
     47300  -17481.98       105.12485     -17376.855      180.04632      185.0618       254.86002    
     47400  -17475.917      106.89035     -17369.026      180.0139       185.02563      254.96308    
     47500  -17465.719      104.62922     -17361.09       179.98522      184.99277      255.06613    
     47600  -17458.035      106.0459      -17351.99       179.95252      184.95547      255.16919    
     47700  -17448.056      106.72261     -17341.334      179.92329      184.92339      255.27225    
     47800  -17440.062      107.31527     -17332.747      179.89001      184.88869      255.3753     
     47900  -17432.222      103.67066     -17328.551      179.85811      184.85744      255.47836    
     48000  -17425.29       103.41733     -17321.873      179.82421      184.82545      255.58142    
     48100  -17418.499      106.28764     -17312.211      179.78967      184.79526      255.68447    
     48200  -17408.539      106.52018     -17302.019      179.75467      184.76661      255.78753    
     48300  -17399.719      108.08766     -17291.631      179.71789      184.73819      255.89059    
     48400  -17388.498      107.45725     -17281.041      179.68162      184.71199      255.99365    
     48500  -17383.357      107.68533     -17275.672      179.6433       184.68453      256.0967     
     48600  -17377.543      106.65935     -17270.884      179.60714      184.65904      256.19976    
     48700  -17368.941      104.67126     -17264.27       179.56984      184.63202      256.30282    
     48800  -17361.921      105.93934     -17255.981      179.53447      184.60565      256.40587    
     48900  -17350.162      104.00569     -17246.157      179.4994       184.57758      256.50893    
     49000  -17342.838      108.17671     -17234.662      179.46597      184.54918      256.61199    
     49100  -17334.72       108.38956     -17226.33       179.43376      184.51942      256.71504    
     49200  -17328.008      105.05614     -17222.952      179.40314      184.4889       256.8181     
     49300  -17321.001      105.85023     -17215.15       179.37346      184.45711      256.92116    
     49400  -17310.086      104.88913     -17205.197      179.3446       184.42452      257.02422    
     49500  -17300.334      105.97889     -17194.355      179.31632      184.39188      257.12727    
     49600  -17294.214      108.618       -17185.596      179.28789      184.35848      257.23033    
     49700  -17287.351      105.08747     -17182.264      179.26016      184.32627      257.33339    
     49800  -17279.197      104.0891      -17175.107      179.23088      184.29385      257.43644    
     49900  -17269.62       104.56845     -17165.052      179.20153      184.2629       257.5395     
     50000  -17261.297      107.21838     -17154.079      179.17084      184.23294      257.64256    
     50100  -17251.9        106.38844     -17145.512      179.13918      184.20431      257.74561    
     50200  -17244.532      102.39929     -17142.132      179.10701      184.17745      257.84867    
     50300  -17238.588      103.65846     -17134.929      179.07372      184.15095      257.95173    
     50400  -17229.712      105.24971     -17124.462      179.03994      184.12546      258.05479    
     50500  -17221.007      107.06443     -17113.942      179.00618      184.10087      258.15784    
     50600  -17210.471      105.93596     -17104.535      178.97232      184.07638      258.2609     
     50700  -17204.171      104.94057     -17099.231      178.93905      184.05214      258.36396    
     50800  -17199.572      105.87389     -17093.698      178.9057       184.02722      258.46701    
     50900  -17189.532      105.55354     -17083.978      178.87338      184.00235      258.57007    
     51000  -17177.794      105.50655     -17072.288      178.84137      183.97606      258.67313    
     51100  -17170.688      107.32173     -17063.367      178.81106      183.9498       258.77618    
     51200  -17162.308      105.93814     -17056.37       178.78125      183.922        258.87924    
     51300  -17154.869      105.66148     -17049.207      178.75235      183.89306      258.9823     
     51400  -17145.061      103.8874      -17041.174      178.7248       183.86394      259.08536    
     51500  -17137.456      104.35153     -17033.105      178.69793      183.83398      259.18841    
     51600  -17129.113      104.14842     -17024.965      178.67123      183.8033       259.29147    
     51700  -17123.304      106.37518     -17016.929      178.64529      183.77293      259.39453    
     51800  -17114.969      106.27066     -17008.698      178.61901      183.74277      259.49758    
     51900  -17104.975      104.22715     -17000.748      178.59233      183.71282      259.60064    
     52000  -17098.146      105.8872      -16992.258      178.56586      183.68437      259.7037     
     52100  -17088.037      104.79889     -16983.238      178.5374       183.65563      259.80676    
     52200  -17080.617      106.45034     -16974.166      178.5106       183.63041      259.90981    
     52300  -17070.554      103.81719     -16966.737      178.47956      183.60308      260.01287    
     52400  -17066.07       105.30242     -16960.767      178.45078      183.58033      260.11593    
     52500  -17056.14       102.94159     -16953.198      178.41884      183.5557       260.21898    
     52600  -17048.599      107.10953     -16941.489      178.38881      183.53376      260.32204    
     52700  -17038.455      108.85015     -16929.605      178.35662      183.51006      260.4251     
     52800  -17029.916      107.26189     -16922.654      178.32535      183.48734      260.52815    
     52900  -17023.115      106.80468     -16916.31       178.29548      183.46506      260.63121    
     53000  -17014.838      105.9861      -16908.852      178.26481      183.44025      260.73427    
     53100  -17007.116      106.58862     -16900.527      178.2369       183.41643      260.83733    
     53200  -16997.034      104.73529     -16892.299      178.20775      183.39017      260.94038    
     53300  -16989.213      104.30253     -16884.911      178.18107      183.36463      261.04344    
     53400  -16981.022      103.00117     -16878.021      178.15428      183.33801      261.1465     
     53500  -16974.921      106.09802     -16868.823      178.12835      183.31056      261.24955    
     53600  -16961.93       104.96088     -16856.969      178.10369      183.28297      261.35261    
     53700  -16954.723      107.77633     -16846.947      178.07918      183.25494      261.45567    
     53800  -16948.757      107.48437     -16841.272      178.05483      183.22729      261.55872    
     53900  -16939.811      104.13401     -16835.677      178.0303       183.19957      261.66178    
     54000  -16931.64       105.34985     -16826.29       178.00628      183.173        261.76484    
     54100  -16922.027      105.87861     -16816.149      177.98033      183.14587      261.8679     
     54200  -16913.621      108.31623     -16805.305      177.95556      183.12078      261.97095    
     54300  -16905.328      107.65928     -16797.668      177.92865      183.09468      262.07401    
     54400  -16895.985      102.93986     -16793.045      177.90254      183.0706       262.17707    
     54500  -16890.077      105.02517     -16785.051      177.87502      183.04645      262.28012    
     54600  -16881.575      106.44401     -16775.131      177.84704      183.02375      262.38318    
     54700  -16868.917      104.97523     -16763.942      177.81866      183.00122      262.48624    
     54800  -16862.765      111.00953     -16751.756      177.78964      182.97842      262.58929    
     54900  -16852.629      106.45226     -16746.177      177.76149      182.95681      262.69235    
     55000  -16846.585      105.81053     -16740.775      177.73266      182.93485      262.79541    
     55100  -16837.908      103.97762     -16733.93       177.70425      182.91302      262.89847    
     55200  -16828.582      101.8627      -16726.719      177.67592      182.89029      263.00152    
     55300  -16819.971      102.57416     -16717.397      177.64931      182.86793      263.10458    
     55400  -16809.387      104.10136     -16705.286      177.6231       182.84475      263.20764    
     55500  -16804.365      109.62361     -16694.741      177.59653      182.82033      263.31069    
     55600  -16795.844      105.93832     -16689.905      177.572        182.79702      263.41375    
     55700  -16788.846      105.77098     -16683.075      177.54691      182.77151      263.51681    
     55800  -16778.438      104.31052     -16674.127      177.5244       182.7471       263.61986    
     55900  -16771.386      106.49513     -16664.891      177.50036      182.71996      263.72292    
     56000  -16762.053      106.51058     -16655.542      177.47835      182.69475      263.82598    
     56100  -16753.378      105.56482     -16647.813      177.45503      182.66815      263.92904    
     56200  -16745.524      103.66614     -16641.858      177.43198      182.64168      264.03209    
     56300  -16736.894      103.28112     -16633.613      177.4107       182.61674      264.13515    
     56400  -16727.348      104.70654     -16622.641      177.38545      182.58871      264.23821    
     56500  -16717.753      108.33052     -16609.422      177.36447      182.56676      264.34126    
     56600  -16709.002      107.532       -16601.47       177.33628      182.53989      264.44432    
     56700  -16701.156      106.16        -16594.996      177.31409      182.51987      264.54738    
     56800  -16693.686      105.39827     -16588.288      177.2854       182.49469      264.65044    
     56900  -16684.826      103.86295     -16580.963      177.26157      182.47553      264.75349    
     57000  -16678.234      105.0874      -16573.146      177.23352      182.45353      264.85655    
     57100  -16670.477      105.15508     -16565.322      177.20651      182.43353      264.95961    
     57200  -16662.288      103.88566     -16558.403      177.17963      182.41313      265.06266    
     57300  -16653.477      104.80295     -16548.674      177.15247      182.39244      265.16572    
     57400  -16641.828      105.96011     -16535.868      177.12713      182.37251      265.26878    
     57500  -16633.081      107.27979     -16525.802      177.09953      182.3492       265.37183    
     57600  -16624.63       105.80503     -16518.825      177.07612      182.32955      265.47489    
     57700  -16616.548      104.86318     -16511.685      177.0494       182.30505      265.57795    
     57800  -16608.678      105.9909      -16502.687      177.02812      182.28379      265.68101    
     57900  -16597.981      103.89132     -16494.09       177.00295      182.25759      265.78406    
     58000  -16591.064      104.73553     -16486.328      176.98159      182.23404      265.88712    
     58100  -16584.067      103.65212     -16480.414      176.95938      182.20892      265.99018    
     58200  -16574.97       103.00545     -16471.965      176.93737      182.18332      266.09323    
     58300  -16565.497      106.58288     -16458.914      176.91601      182.15877      266.19629    
     58400  -16554.113      107.05116     -16447.062      176.89355      182.13302      266.29935    
     58500  -16547.725      107.59238     -16440.132      176.87223      182.10915      266.4024     
     58600  -16539.489      105.87062     -16433.618      176.84946      182.08472      266.50546    
     58700  -16528.882      103.28399     -16425.598      176.82748      182.06268      266.60852    
     58800  -16521.865      104.79624     -16417.068      176.80326      182.03929      266.71158    
     58900  -16514.62       105.83065     -16408.789      176.7793       182.01711      266.81463    
     59000  -16507.007      104.27202     -16402.735      176.7561       181.99711      266.91769    
     59100  -16498.282      103.77419     -16394.508      176.72899      181.97448      267.02075    
     59200  -16489.281      107.2457      -16382.035      176.7058       181.95678      267.1238     
     59300  -16476.561      106.21157     -16370.349      176.67759      181.93392      267.22686    
     59400  -16469.899      108.34026     -16361.559      176.65436      181.91592      267.32992    
     59500  -16459.991      105.73134     -16354.26       176.62789      181.89448      267.43297    
     59600  -16451.129      104.8336      -16346.296      176.60292      181.87431      267.53603    
     59700  -16443.525      105.72116     -16337.804      176.5785       181.85375      267.63909    
     59800  -16434.428      105.61295     -16328.815      176.55363      181.83166      267.74215    
     59900  -16425.091      104.74688     -16320.344      176.53067      181.81059      267.8452     
     60000  -16419.744      103.63353     -16316.111      176.50723      181.78789      267.94826    
     60100  -16408.137      101.90668     -16306.231      176.4844       181.76516      268.05132    
     60200  -16397.218      103.53684     -16293.681      176.46297      181.74288      268.15437    
     60300  -16390.183      107.57741     -16282.606      176.44054      181.71881      268.25743    
     60400  -16380.748      107.11552     -16273.633      176.42003      181.6958       268.36049    
     60500  -16372.857      105.14386     -16267.713      176.39818      181.67163      268.46355    
     60600  -16362.608      103.93965     -16258.668      176.37763      181.6484       268.5666     
     60700  -16355.756      107.04266     -16248.714      176.35639      181.62458      268.66966    
     60800  -16343.253      103.78452     -16239.468      176.33463      181.60083      268.77272    
     60900  -16334.542      102.77205     -16231.77       176.31327      181.57831      268.87577    
     61000  -16331.3        106.37088     -16224.929      176.29045      181.55479      268.97883    
     61100  -16319.265      103.68675     -16215.579      176.26873      181.53361      269.08189    
     61200  -16308.23       105.77571     -16202.454      176.2443       181.5107       269.18494    
     61300  -16296.227      106.94091     -16189.287      176.2209       181.48982      269.288      
     61400  -16289.745      108.30814     -16181.437      176.19748      181.46937      269.39106    
     61500  -16281.197      106.83114     -16174.366      176.17286      181.44848      269.49412    
     61600  -16274.041      107.29839     -16166.743      176.14892      181.42939      269.59717    
     61700  -16264.176      105.42408     -16158.752      176.1232       181.40843      269.70023    
     61800  -16255.985      106.01566     -16149.97       176.1006       181.38972      269.80329    
     61900  -16244.823      103.61272     -16141.21       176.07598      181.3687       269.90634    
     62000  -16238.786      103.7888      -16134.997      176.05232      181.34843      270.0094     
     62100  -16231.109      105.24356     -16125.865      176.03012      181.3279       270.11246    
     62200  -16218.324      105.61706     -16112.707      176.00619      181.30459      270.21551    
     62300  -16207.962      107.72944     -16100.232      175.98497      181.2839       270.31857    
     62400  -16195.718      104.50037     -16091.218      175.96242      181.26059      270.42163    
     62500  -16189.043      105.99326     -16083.05       175.94097      181.2378       270.52469    
     62600  -16182.517      107.53292     -16074.984      175.92044      181.21499      270.62774    
     62700  -16170.805      105.17718     -16065.628      175.89847      181.1907       270.7308     
     62800  -16161.321      105.52946     -16055.792      175.87823      181.16832      270.83386    
     62900  -16149.366      104.10516     -16045.261      175.85575      181.14395      270.93691    
     63000  -16141.041      105.57398     -16035.467      175.83529      181.12224      271.03997    
     63100  -16133.96       107.37251     -16026.587      175.81322      181.09956      271.14303    
     63200  -16124.073      106.22189     -16017.851      175.79123      181.07711      271.24608    
     63300  -16114.766      106.2381      -16008.528      175.7692       181.05561      271.34914    
     63400  -16104.554      106.56359     -15997.991      175.74528      181.03369      271.4522     
     63500  -16093.016      104.80938     -15988.206      175.72376      181.01413      271.55526    
     63600  -16084.285      104.76124     -15979.523      175.6988       180.99224      271.65831    
     63700  -16078.065      106.54333     -15971.521      175.67597      180.9731       271.76137    
     63800  -16068.451      103.9378      -15964.514      175.65118      180.95166      271.86443    
     63900  -16059.555      103.49199     -15956.063      175.62888      180.93255      271.96748    
     64000  -16047.432      101.66225     -15945.77       175.60435      180.91105      272.07054    
     64100  -16038.187      107.21566     -15930.971      175.58069      180.8904       272.1736     
     64200  -16025.577      108.00177     -15917.575      175.55724      180.86982      272.27665    
     64300  -16015.991      107.85194     -15908.139      175.53346      180.84823      272.37971    
     64400  -16005.734      105.04133     -15900.692      175.51105      180.82736      272.48277    
     64500  -15997.489      106.32164     -15891.168      175.4879       180.80564      272.58583    
     64600  -15984.802      103.45754     -15881.344      175.46544      180.78348      272.68888    
     64700  -15976.817      105.10699     -15871.71       175.44399      180.76144      272.79194    
     64800  -15966.293      101.99318     -15864.3        175.42182      180.73833      272.895      
     64900  -15958.099      104.31251     -15853.786      175.40091      180.716        272.99805    
     65000  -15946.449      104.95886     -15841.49       175.37962      180.69251      273.10111    
     65100  -15937.066      107.85609     -15829.21       175.35805      180.6688       273.20417    
     65200  -15925.467      106.94738     -15818.52       175.3379       180.64622      273.30723    
     65300  -15912.451      103.65721     -15808.794      175.316        180.62233      273.41028    
     65400  -15904.332      106.05134     -15798.28       175.29452      180.59893      273.51334    
     65500  -15894.807      106.70177     -15788.106      175.27287      180.57634      273.6164     
     65600  -15883.385      104.57691     -15778.808      175.25041      180.55364      273.71945    
     65700  -15873.708      104.77998     -15768.928      175.22792      180.53138      273.82251    
     65800  -15864.126      106.50902     -15757.617      175.20518      180.50977      273.92557    
     65900  -15854.553      107.8047      -15746.749      175.18152      180.48775      274.02862    
     66000  -15842.584      106.6342      -15735.949      175.15848      180.46729      274.13168    
     66100  -15834.703      107.29272     -15727.41       175.13396      180.44609      274.23474    
     66200  -15822.324      106.10861     -15716.216      175.11035      180.42555      274.3378     
     66300  -15809.64       105.63046     -15704.009      175.0861       180.40452      274.44085    
     66400  -15799.859      106.25393     -15693.606      175.06187      180.38381      274.54391    
     66500  -15788.578      104.48729     -15684.091      175.03796      180.36292      274.64697    
     66600  -15780.225      106.20693     -15674.018      175.01417      180.34175      274.75002    
     66700  -15767.743      106.54853     -15661.195      174.99039      180.3202       274.85308    
     66800  -15754.191      105.02666     -15649.165      174.96662      180.29801      274.95614    
     66900  -15747.431      107.77022     -15639.661      174.94383      180.27573      275.05919    
     67000  -15733.684      103.77459     -15629.91       174.92168      180.2534       275.16225    
     67100  -15723.845      105.27929     -15618.565      174.89868      180.22973      275.26531    
     67200  -15711.126      104.65647     -15606.47       174.87665      180.20636      275.36837    
     67300  -15700.115      104.69776     -15595.417      174.85436      180.1826       275.47142    
     67400  -15691.584      104.37735     -15587.207      174.83256      180.15917      275.57448    
     67500  -15680.085      104.70675     -15575.378      174.81082      180.13557      275.67754    
     67600  -15668.773      106.93637     -15561.837      174.78794      180.11117      275.78059    
     67700  -15654.943      106.56588     -15548.377      174.76619      180.08814      275.88365    
     67800  -15642.646      104.157       -15538.489      174.74341      180.06428      275.98671    
     67900  -15633.719      105.20438     -15528.515      174.72103      180.04141      276.08976    
     68000  -15623.465      107.19086     -15516.274      174.69794      180.01815      276.19282    
     68100  -15609.313      105.15823     -15504.154      174.67438      179.99493      276.29588    
     68200  -15600.792      106.39837     -15494.394      174.65114      179.97276      276.39894    
     68300  -15586.534      104.29068     -15482.244      174.62707      179.95006      276.50199    
     68400  -15575.635      106.5331      -15469.102      174.60268      179.92741      276.60505    
[...]
     81600  -19847.178      96.002115     -19751.176      171.78396      177.61299      290.20858    
     81700  -19825.476      100.70509     -19724.771      171.77705      177.60676      290.31163    
     81800  -19792.36       97.216764     -19695.143      171.76522      177.60588      290.41469    
     81900  -19760.734      96.831139     -19663.903      171.75282      177.60698      290.51775    
     82000  -19730.987      99.443647     -19631.543      171.74217      177.60705      290.62081    
     82100  -19723.346      119.9055      -19603.44       171.7353       177.60109      290.72386    
     82200  -19725.465      121.5029      -19603.962      171.72999      177.59005      290.82692    
     82300  -19742.438      109.1016      -19633.337      171.73135      177.5706       290.92998    
     82400  -19756.104      96.544953     -19659.559      171.74478      177.53546      291.03303    
     82500  -19768.227      99.06644      -19669.161      171.75753      177.48713      291.13609    
     82600  -19780.386      111.08398     -19669.302      171.77682      177.42701      291.23915    
     82700  -19789.083      109.35521     -19679.728      171.79236      177.37072      291.3422     
     82800  -19805.725      106.10412     -19699.621      171.8009       177.3219       291.44526    
     82900  -19814.786      98.146977     -19716.639      171.79964      177.28465      291.54832    
     83000  -19819.048      98.578908     -19720.469      171.79162      177.26071      291.65138    
     83100  -19816.864      104.68836     -19712.176      171.77601      177.25302      291.75443    
     83200  -19807.853      106.06234     -19701.79       171.7477       177.25147      291.85749    
     83300  -19795.269      102.40787     -19692.861      171.72112      177.25241      291.96055    
     83400  -19777.688      99.47876      -19678.209      171.69854      177.24023      292.0636     
     83500  -19765.602      109.44204     -19656.16       171.68484      177.21323      292.16666    
     83600  -19769.667      123.04754     -19646.62       171.682        177.17044      292.26972    
     83700  -19780.012      112.00377     -19668.008      171.69082      177.10991      292.37277    
     83800  -19800.443      102.96799     -19697.475      171.70835      177.03664      292.47583    
     83900  -19813.502      97.839195     -19715.663      171.73565      176.95826      292.57889    
     84000  -19818.601      97.611556     -19720.989      171.77128      176.88171      292.68195    
     84100  -19818.467      103.40106     -19715.066      171.80557      176.80013      292.785      
     84200  -19806.355      104.31647     -19702.039      171.83529      176.72574      292.88806    
     84300  -19794.037      107.64426     -19686.392      171.86468      176.66075      292.99112    
     84400  -19786.095      109.81485     -19676.281      171.87752      176.59736      293.09417    
     84500  -19779.325      105.99377     -19673.331      171.88675      176.54539      293.19723    
     84600  -19772.189      101.24157     -19670.947      171.89435      176.4963       293.30029    
     84700  -19769.897      105.73988     -19664.157      171.89181      176.44088      293.40334    
     84800  -19774.456      114.70558     -19659.751      171.89352      176.38995      293.5064     
     84900  -19782.355      112.80901     -19669.546      171.88851      176.3336       293.60946    
     85000  -19798.67       108.13984     -19690.53       171.88278      176.27699      293.71252    
     85100  -19809.645      99.025681     -19710.62       171.87523      176.22037      293.81557    
     85200  -19820.368      100.33791     -19720.031      171.86888      176.16477      293.91863    
     85300  -19821.015      100.8997      -19720.116      171.86112      176.11098      294.02169    
     85400  -19813.07       101.92034     -19711.149      171.85498      176.05974      294.12474    
     85500  -19796.534      101.31633     -19695.217      171.84981      176.00735      294.2278     
     85600  -19786.785      110.66834     -19676.117      171.8524       175.95223      294.33086    
     85700  -19776.271      110.82631     -19665.445      171.85691      175.88816      294.43391    
     85800  -19777.788      108.90054     -19668.887      171.8712       175.8185       294.53697    
     85900  -19787.263      106.53241     -19680.73       171.88568      175.73351      294.64003    
     86000  -19796.506      103.83008     -19692.676      171.90331      175.64215      294.74309    
     86100  -19806.045      105.09681     -19700.949      171.92304      175.55019      294.84614    
     86200  -19807.892      101.75176     -19706.14       171.9383       175.45783      294.9492     
     86300  -19808.242      101.25719     -19706.985      171.95058      175.37303      295.05226    
     86400  -19803.362      101.80543     -19701.556      171.95771      175.2948       295.15531    
     86500  -19797.919      108.17989     -19689.739      171.96034      175.22418      295.25837    
     86600  -19790.912      110.04027     -19680.872      171.95919      175.15923      295.36143    
     86700  -19786.306      107.13739     -19679.169      171.95282      175.09586      295.46449    
     86800  -19786.628      105.51293     -19681.115      171.94489      175.03004      295.56754    
     86900  -19787.835      103.93862     -19683.896      171.9377       174.95692      295.6706     
     87000  -19794.554      108.30405     -19686.25       171.93024      174.87568      295.77366    
     87100  -19799.505      107.91482     -19691.591      171.92783      174.78595      295.87671    
     87200  -19801.971      102.8451      -19699.126      171.93287      174.69328      295.97977    
     87300  -19805.819      100.33167     -19705.488      171.94066      174.5949       296.08283    
     87400  -19804.38       101.05751     -19703.322      171.95314      174.50212      296.18588    
     87500  -19800.602      106.97847     -19693.623      171.96704      174.41047      296.28894    
     87600  -19793.537      107.93474     -19685.602      171.98161      174.3165       296.392      
     87700  -19792.16       108.02311     -19684.137      171.9992       174.22361      296.49506    
     87800  -19791.416      105.49643     -19685.919      172.01421      174.12609      296.59811    
     87900  -19793.443      105.2433      -19688.2        172.02856      174.02862      296.70117    
     88000  -19795.082      105.77074     -19689.311      172.04056      173.93231      296.80423    
     88100  -19798.963      108.48293     -19690.48       172.04369      173.83691      296.90728    
     88200  -19802.591      106.56055     -19696.03       172.05173      173.75354      297.01034    
     88300  -19806.342      103.45462     -19702.887      172.05167      173.66919      297.1134     
     88400  -19808.489      102.74016     -19705.749      172.05136      173.59051      297.21645    
     88500  -19807.233      102.59102     -19704.642      172.04951      173.51666      297.31951    
     88600  -19802.728      103.38583     -19699.343      172.0414       173.438        297.42257    
     88700  -19793.7        104.21691     -19689.483      172.03793      173.36185      297.52563    
     88800  -19784.096      106.14077     -19677.956      172.0344       173.2815       297.62868    
     88900  -19780.593      112.48418     -19668.109      172.033        173.19415      297.73174    
     89000  -19783.75       115.92062     -19667.83       172.04038      173.10612      297.8348     
     89100  -19794.326      109.45598     -19684.87       172.0499       173.00597      297.93785    
     89200  -19808.371      103.66272     -19704.708      172.06625      172.90454      298.04091    
     89300  -19812.539      97.540535     -19714.999      172.08494      172.80038      298.14397    
     89400  -19812.828      100.96543     -19711.863      172.10407      172.69314      298.24702    
     89500  -19807.839      107.68017     -19700.159      172.12812      172.58973      298.35008    
     89600  -19799.631      110.77772     -19688.853      172.14736      172.48601      298.45314    
     89700  -19794.331      107.14669     -19687.185      172.16498      172.38824      298.5562     
     89800  -19795.686      104.33938     -19691.346      172.17959      172.29908      298.65925    
     89900  -19797.53       103.40962     -19694.12       172.18435      172.21275      298.76231    
     90000  -19799.046      105.43783     -19693.608      172.18636      172.13059      298.86537    
     90100  -19804.559      109.97554     -19694.583      172.17707      172.05331      298.96842    
     90200  -19807.319      104.30404     -19703.015      172.16076      171.98001      299.07148    
     90300  -19808.893      98.364275     -19710.528      172.14301      171.91259      299.17454    
     90400  -19811.178      102.36365     -19708.815      172.12563      171.84352      299.27759    
     90500  -19804.014      105.00082     -19699.013      172.11367      171.77349      299.38065    
     90600  -19798.637      109.85273     -19688.784      172.10852      171.70295      299.48371    
     90700  -19797.942      111.10092     -19686.841      172.10757      171.62577      299.58677    
     90800  -19798.818      104.27655     -19694.542      172.11703      171.54366      299.68982    
     90900  -19800.206      99.466187     -19700.74       172.13312      171.4529       299.79288    
     91000  -19806.753      106.94262     -19699.81       172.15272      171.35681      299.89594    
     91100  -19806.319      109.16082     -19697.158      172.17381      171.25666      299.99899    
     91200  -19806.725      107.607       -19699.118      172.19609      171.16283      300.10205    
     91300  -19809.291      104.27392     -19705.017      172.21148      171.07202      300.20511    
     91400  -19810.057      101.89592     -19708.161      172.22184      170.98907      300.30817    
     91500  -19806.49       102.83037     -19703.66       172.22595      170.91503      300.41122    
     91600  -19805.352      109.97414     -19695.378      172.22234      170.84679      300.51428    
     91700  -19797.671      106.23155     -19691.439      172.21522      170.79045      300.61734    
     91800  -19797.908      106.7361      -19691.172      172.19961      170.73688      300.72039    
     91900  -19800.59       108.08114     -19692.509      172.17967      170.68551      300.82345    
     92000  -19798.982      104.22132     -19694.761      172.1628       170.6338       300.92651    
     92100  -19802.518      106.57135     -19695.947      172.1471       170.57309      301.02956    
     92200  -19803.08       104.49441     -19698.586      172.14111      170.51171      301.13262    
     92300  -19802.655      101.80248     -19700.853      172.13957      170.44545      301.23568    
     92400  -19802.294      102.96781     -19699.326      172.14211      170.37378      301.33874    
     92500  -19804.454      107.62649     -19696.827      172.15508      170.30366      301.44179    
     92600  -19804.259      105.85588     -19698.403      172.1674       170.22643      301.54485    
     92700  -19804.885      103.07145     -19701.814      172.18482      170.15023      301.64791    
     92800  -19807.486      104.23825     -19703.247      172.20258      170.07452      301.75096    
     92900  -19802.831      102.29166     -19700.539      172.21283      169.99798      301.85402    
     93000  -19799.663      106.95098     -19692.712      172.22312      169.93082      301.95708    
     93100  -19799.206      110.67416     -19688.532      172.22307      169.86684      302.06013    
     93200  -19797.798      105.01785     -19692.78       172.21708      169.81087      302.16319    
     93300  -19803.453      103.05336     -19700.4        172.20966      169.76465      302.26625    
     93400  -19808.848      102.8761      -19705.971      172.19284      169.72023      302.36931    
     93500  -19811.436      103.08228     -19708.354      172.17734      169.68355      302.47236    
     93600  -19810.358      103.66434     -19706.694      172.1612       169.64995      302.57542    
     93700  -19807.086      103.94887     -19703.137      172.14402      169.61237      302.67848    
     93800  -19799.409      103.29013     -19696.119      172.13369      169.5759       302.78153    
     93900  -19796.366      108.79866     -19687.568      172.12801      169.53269      302.88459    
     94000  -19792.768      108.33281     -19684.435      172.12992      169.4821       302.98765    
     94100  -19798.589      107.79921     -19690.789      172.14046      169.42786      303.0907     
     94200  -19806.115      103.54171     -19702.573      172.15421      169.36644      303.19376    
     94300  -19809.954      99.479366     -19710.475      172.17207      169.30517      303.29682    
     94400  -19811.057      101.83079     -19709.226      172.18797      169.24569      303.39988    
     94500  -19807.016      105.45893     -19701.557      172.20073      169.18895      303.50293    
     94600  -19804.469      109.73169     -19694.737      172.21086      169.13834      303.60599    
     94700  -19799.703      106.04523     -19693.658      172.21294      169.09306      303.70905    
     94800  -19797.779      103.47112     -19694.308      172.21101      169.05404      303.8121     
     94900  -19798.25       104.44867     -19693.802      172.20276      169.02033      303.91516    
     95000  -19796.28       106.04894     -19690.231      172.1898       168.9876       304.01822    
     95100  -19798.015      110.11375     -19687.901      172.17687      168.95842      304.12128    
     95200  -19801.744      106.50863     -19695.236      172.15972      168.93026      304.22433    
     95300  -19804.744      100.31516     -19704.429      172.1423       168.90034      304.32739    
     95400  -19807.759      100.43889     -19707.32       172.12881      168.86924      304.43045    
     95500  -19804.936      102.01388     -19702.922      172.1192       168.83473      304.5335     
     95600  -19804.539      108.25841     -19696.28       172.1144       168.79698      304.63656    
     95700  -19800.765      107.27672     -19693.488      172.11407      168.75595      304.73962    
     95800  -19802.733      107.10388     -19695.629      172.11928      168.71167      304.84267    
     95900  -19802.595      103.99591     -19698.599      172.12763      168.66505      304.94573    
     96000  -19802.995      103.30401     -19699.691      172.13962      168.61609      305.04879    
     96100  -19805.286      106.3226      -19698.963      172.15375      168.56602      305.15185    
     96200  -19803.634      106.45649     -19697.178      172.16437      168.51754      305.2549     
     96300  -19801.481      105.01927     -19696.462      172.17037      168.4724       305.35796    
     96400  -19802.485      104.90305     -19697.582      172.17104      168.43456      305.46102    
     96500  -19804.778      105.37513     -19699.403      172.16357      168.4053       305.56407    
     96600  -19807.949      106.45891     -19701.491      172.15243      168.38655      305.66713    
     96700  -19805.886      102.70129     -19703.185      172.13719      168.3705       305.77019    
     96800  -19803.76       102.4793      -19701.281      172.1187       168.35703      305.87324    
     96900  -19800.937      105.02924     -19695.908      172.10207      168.34545      305.9763     
     97000  -19799.014      107.3041      -19691.709      172.08523      168.32846      306.07936    
     97100  -19800.773      108.32891     -19692.444      172.07336      168.30582      306.18242    
     97200  -19804.359      105.33136     -19699.028      172.06899      168.27883      306.28547    
     97300  -19805.424      101.17322     -19704.251      172.06875      168.24434      306.38853    
     97400  -19808.644      104.96928     -19703.674      172.07578      168.20658      306.49159    
     97500  -19807.349      107.5239      -19699.825      172.08669      168.16357      306.59464    
     97600  -19801.869      104.21177     -19697.657      172.09753      168.11839      306.6977     
     97700  -19801.225      103.57332     -19697.652      172.1086       168.07684      306.80076    
     97800  -19803.462      105.17653     -19698.285      172.1145       168.03672      306.90381    
     97900  -19800.506      104.03818     -19696.468      172.11628      168.00118      307.00687    
     98000  -19797.983      105.72772     -19692.255      172.11521      167.97125      307.10993    
     98100  -19798.995      108.7237      -19690.271      172.10808      167.94374      307.21299    
     98200  -19799.555      106.17622     -19693.379      172.09675      167.92191      307.31604    
     98300  -19803.628      105.31855     -19698.309      172.08088      167.90452      307.4191     
     98400  -19806.12       104.8441      -19701.276      172.06075      167.88853      307.52216    
     98500  -19805.028      103.46693     -19701.561      172.04054      167.87595      307.62521    
     98600  -19804.069      103.87045     -19700.199      172.02054      167.86324      307.72827    
     98700  -19805.38       106.20693     -19699.173      172.0038       167.84656      307.83133    
     98800  -19802.549      102.82949     -19699.72       171.99314      167.82674      307.93438    
     98900  -19800.667      102.23711     -19698.43       171.98906      167.79958      308.03744    
     99000  -19801.664      106.48139     -19695.182      171.98974      167.76483      308.1405     
     99100  -19801.242      107.19524     -19694.046      171.99706      167.7256       308.24356    
     99200  -19804.378      108.41325     -19695.965      172.00723      167.68302      308.34661    
     99300  -19805.734      105.98724     -19699.747      172.018        167.64014      308.44967    
     99400  -19807.362      104.65654     -19702.705      172.02762      167.60045      308.55273    
     99500  -19805.522      103.53839     -19701.983      172.03179      167.56431      308.65578    
     99600  -19805.839      107.5921      -19698.247      172.03033      167.53275      308.75884    
     99700  -19801.501      106.50768     -19694.993      172.02469      167.50872      308.8619     
     99800  -19802.051      107.3725      -19694.679      172.01249      167.48753      308.96496    
     99900  -19799.743      102.98445     -19696.759      171.99525      167.47118      309.06801    
    100000  -19803.474      104.92174     -19698.553      171.97671      167.45893      309.17107    
Loop time of 54821.2 on 12 procs for 100000 steps with 2720 atoms

Performance: 0.158 ns/day, 152.281 hours/ns, 1.824 timesteps/s, 4.962 katom-step/s
38.2% CPU use with 12 MPI tasks x 1 OpenMP threads

MPI task timing breakdown:
Section |  min time  |  avg time  |  max time  |%varavg| %total
---------------------------------------------------------------
Pair    | 338.62     | 443.73     | 575.35     | 346.2 |  0.81
Neigh   | 0.64754    | 1.7245     | 2.5379     |  58.1 |  0.00
Comm    | 8617.3     | 9262.4     | 10169      | 428.9 | 16.90
Output  | 169.44     | 175.54     | 180.98     |  27.2 |  0.32
Modify  | 39014      | 39959      | 40508      | 196.8 | 72.89
Other   |            | 4978       |            |       |  9.08

Nlocal:        226.667 ave         358 max          24 min
Histogram: 4 0 0 0 0 0 0 0 4 4
Nghost:        911.333 ave        1312 max         316 min
Histogram: 4 0 0 0 0 0 0 2 2 4
Neighs:              0 ave           0 max           0 min
Histogram: 12 0 0 0 0 0 0 0 0 0

Total # of neighbors = 0
Ave neighs/atom = 0
Neighbor list builds = 487
Dangerous builds = 0
Total wall time: 15:13:58
