LAMMPS (2 Aug 2023 - Update 3)
OMP_NUM_THREADS environment is not set. Defaulting to 1 thread. (src/comm.cpp:98)
  using 1 OpenMP thread(s) per MPI task
Reading data file ...
  orthogonal box = (-100 -100 -2.1416495) to (100 100 39.081159)
  4 by 4 by 1 MPI processor grid
  reading atoms ...
  1620 atoms
  read_data CPU = 0.524 seconds
600 atoms in group SR
Deleted 600 atoms, new total = 1020
Replication is creating a 1x1x13 = 13 times larger system...
  orthogonal box = (-100 -100 -2.1416495) to (100 100 533.75487)
  2 by 2 by 4 MPI processor grid
  13260 atoms
  replicate CPU = 0.496 seconds
System init for write_data ...
WARNING: Communication cutoff is 0.0. No ghost atoms will be generated. Atoms may get lost. (src/comm_brick.cpp:210)
Reading airebo potential file CH.airebo with DATE: 2011-10-25
Reading airebo potential file CH.airebo with DATE: 2011-10-25
Reading airebo potential file CH.airebo with DATE: 2011-10-25
Neighbor list info ...
  update: every = 1 steps, delay = 0 steps, check = yes
  max neighbors/atom: 2000, page size: 100000
  master list distance cutoff = 13.2
  ghost atom cutoff = 13.2
  binsize = 6.6, bins = 31 31 82
  6 neighbor lists, perpetual/occasional/extra = 6 0 0
  (1) pair airebo, perpetual, skip from (5)
      attributes: full, newton on, ghost
      pair build: skip/ghost
      stencil: none
      bin: none
  (2) pair airebo, perpetual, skip from (5)
      attributes: full, newton on, ghost
      pair build: skip/ghost
      stencil: none
      bin: none
  (3) pair airebo, perpetual, skip from (5)
      attributes: full, newton on, ghost
      pair build: skip/ghost
      stencil: none
      bin: none
  (4) pair lj/cut, perpetual, skip from (6)
      attributes: half, newton on, cut 13
      pair build: skip
      stencil: none
      bin: none
  (5) neighbor class addition, perpetual
      attributes: full, newton on, ghost
      pair build: full/bin/ghost
      stencil: full/ghost/bin/3d
      bin: standard
  (6) neighbor class addition, perpetual
      attributes: half, newton on, cut 13
      pair build: half/bin/atomonly/newton
      stencil: half/bin/3d
      bin: standard
Setting up sd style minimization ...
  Unit style    : metal
  Current step  : 0
Per MPI rank memory allocation (min/avg/max) = 11.76 | 11.95 | 12.53 Mbytes
   Step          Temp          E_pair         E_mol          TotEng         Press     
         0   0             -98314.107      0             -98314.107     -58.353665    
         1   0             -98314.218      0             -98314.218     -58.244675    
Loop time of 0.679497 on 16 procs for 1 steps with 13260 atoms

42.8% CPU use with 16 MPI tasks x 1 OpenMP threads

Minimization stats:
  Stopping criterion = energy tolerance
  Energy initial, next-to-last, final = 
     -98314.1071479273  -98314.1071479273  -98314.2180278652
  Force two-norm initial, final = 5.3230302 1.0388251
  Force max component initial, final = 0.046231127 0.0090219153
  Final line search alpha, max atom move = 1 0.0090219153
  Iterations, force evaluations = 1 2

MPI task timing breakdown:
Section |  min time  |  avg time  |  max time  |%varavg| %total
---------------------------------------------------------------
Pair    | 0.043302   | 0.061129   | 0.11302    |   7.2 |  9.00
Neigh   | 0          | 0          | 0          |   0.0 |  0.00
Comm    | 0.11837    | 0.17219    | 0.21579    |   7.5 | 25.34
Output  | 0          | 0          | 0          |   0.0 |  0.00
Modify  | 0          | 0          | 0          |   0.0 |  0.00
Other   |            | 0.4462     |            |       | 65.66

Nlocal:         828.75 ave         888 max         770 min
Histogram: 4 0 0 0 4 4 0 0 0 4
Nghost:        3146.25 ave        3213 max        3080 min
Histogram: 2 2 0 0 4 4 0 0 2 2
Neighs:              0 ave           0 max           0 min
Histogram: 16 0 0 0 0 0 0 0 0 0

Total # of neighbors = 0
Ave neighs/atom = 0
Neighbor list builds = 0
Dangerous builds = 0
Setting up Verlet run ...
  Unit style    : metal
  Current step  : 1
  Time step     : 0.001
Per MPI rank memory allocation (min/avg/max) = 12.39 | 12.87 | 13.53 Mbytes
   Step          Temp          E_pair         E_mol          TotEng         Press          Volume    
         1   300           -98314.218      0             -97800.06      -32.624928      21435861     
Loop time of 0.0312484 on 16 procs for 0 steps with 13260 atoms

37.2% CPU use with 16 MPI tasks x 1 OpenMP threads

MPI task timing breakdown:
Section |  min time  |  avg time  |  max time  |%varavg| %total
---------------------------------------------------------------
Pair    | 0          | 0          | 0          |   0.0 |  0.00
Neigh   | 0          | 0          | 0          |   0.0 |  0.00
Comm    | 0          | 0          | 0          |   0.0 |  0.00
Output  | 0          | 0          | 0          |   0.0 |  0.00
Modify  | 0          | 0          | 0          |   0.0 |  0.00
Other   |            | 0.03125    |            |       |100.00

Nlocal:         828.75 ave         888 max         770 min
Histogram: 8 0 0 0 0 0 0 0 0 8
Nghost:        3146.25 ave        3213 max        3080 min
Histogram: 4 4 0 0 0 0 0 0 4 4
Neighs:              0 ave           0 max           0 min
Histogram: 16 0 0 0 0 0 0 0 0 0

Total # of neighbors = 0
Ave neighs/atom = 0
Neighbor list builds = 0
Dangerous builds = 0
WARNING: Dump 2 includes no atom IDs and is not sorted by ID. This may complicate post-processing tasks or visualization (src/dump.cpp:221)
Setting up Verlet run ...
  Unit style    : metal
  Current step  : 0
  Time step     : 0.001
Per MPI rank memory allocation (min/avg/max) = 13.89 | 14.37 | 15.03 Mbytes
   Step         PotEng         KinEng         TotEng           Lx             Ly             Lz      
         0  -98314.218      514.15808     -97800.06       200            200            535.89652    
       100  -98017.046      253.18916     -97763.857      199.99163      199.99132      536.16447    
       200  -98028.777      314.3333      -97714.444      199.98588      199.98544      536.43241    
       300  -97982.512      327.2099      -97655.302      199.99439      199.99394      536.70036    
       400  -97956.21       365.67921     -97590.531      199.98569      199.98445      536.96831    
       500  -97919.834      397.90899     -97521.925      199.98102      199.97874      537.23626    
       600  -97887.362      435.2121      -97452.15       199.9901       199.98745      537.50421    
       700  -97848.515      463.76678     -97384.748      199.98133      199.97722      537.77215    
       800  -97815.87       491.42915     -97324.441      199.9756       199.96924      538.0401     
       900  -97796.56       519.39973     -97277.16       199.98667      199.97854      538.30805    
      1000  -97774.433      521.88379     -97252.549      199.97896      199.96781      538.576      
      1100  -97787.23       527.90137     -97259.328      199.97156      199.95616      538.84395    
      1200  -97796.726      514.35882     -97282.367      199.98028      199.96106      539.1119     
      1300  -97802.078      505.99004     -97296.088      199.97494      199.94971      539.37984    
      1400  -97801.008      510.02002     -97290.988      199.97105      199.93894      539.64779    
      1500  -97781.905      512.30319     -97269.601      199.97985      199.94039      539.91574    
      1600  -97778.59       528.50542     -97250.084      199.97679      199.92883      540.18369    
      1700  -97774.714      526.88212     -97247.832      199.97292      199.91534      540.45164    
      1800  -97772.994      514.06131     -97258.933      199.98064      199.91302      540.71959    
      1900  -97775.779      506.65287     -97269.127      199.98019      199.90111      540.98753    
      2000  -97774.811      505.29398     -97269.517      199.9788       199.88746      541.25548    
      2100  -97766.471      510.57108     -97255.9        199.98422      199.88042      541.52343    
      2200  -97755.768      519.81672     -97235.951      199.98454      199.86644      541.79138    
      2300  -97746.334      520.84287     -97225.491      199.98587      199.85248      542.05933    
      2400  -97745.069      515.01635     -97230.053      199.99204      199.84301      542.32728    
      2500  -97752.335      511.65008     -97240.685      199.9933       199.82838      542.59522    
      2600  -97752.733      508.26026     -97244.472      199.99426      199.81283      542.86317    
      2700  -97740.917      506.52077     -97234.397      199.99929      199.80107      543.13112    
      2800  -97731.124      516.8139      -97214.31       199.99993      199.78454      543.39907    
      2900  -97723.173      524.02419     -97199.149      200.00326      199.77018      543.66702    
      3000  -97718.376      520.77496     -97197.601      200.00703      199.75676      543.93496    
      3100  -97718.502      513.19228     -97205.31       200.00618      199.73905      544.20291    
      3200  -97721.146      511.5301      -97209.616      200.00828      199.72418      544.47086    
      3300  -97711.717      509.1215      -97202.596      200.0114       199.71071      544.73881    
      3400  -97705.235      519.81243     -97185.422      200.00966      199.6928       545.00676    
      3500  -97691.517      521.49547     -97170.022      200.01115      199.67961      545.27471    
      3600  -97684.826      520.30318     -97164.523      200.01221      199.66604      545.54265    
      3700  -97684.27       517.37417     -97166.896      200.00768      199.64761      545.8106     
      3800  -97679.693      509.54979     -97170.143      200.00837      199.63562      546.07855    
      3900  -97672.73       507.34445     -97165.386      200.00756      199.62279      546.3465     
      4000  -97666.587      515.61466     -97150.972      200.00018      199.60442      546.61445    
      4100  -97650.427      516.20679     -97134.22       199.99929      199.59345      546.8824     
      4200  -97646.752      522.58243     -97124.17       199.99739      199.58213      547.15034    
      4300  -97643.894      521.47925     -97122.414      199.98803      199.56403      547.41829    
      4400  -97635.602      510.58747     -97125.015      199.98503      199.55291      547.68624    
      4500  -97626.417      503.67382     -97122.744      199.98185      199.54298      547.95419    
      4600  -97623.588      512.36335     -97111.224      199.97061      199.52555      548.22214    
      4700  -97608.112      513.00752     -97095.105      199.96502      199.51428      548.49009    
      4800  -97601.776      519.85001     -97081.926      199.96012      199.50498      548.75803    
      4900  -97594.197      518.76596     -97075.431      199.94728      199.48817      549.02598    
      5000  -97590.389      515.17954     -97075.21       199.93938      199.4769       549.29393    
      5100  -97585.536      511.69255     -97073.843      199.93345      199.46838      549.56188    
      5200  -97570.979      506.08379     -97064.895      199.91875      199.45132      549.82983    
      5300  -97559.37       510.0116      -97049.359      199.90844      199.43874      550.09777    
      5400  -97551.433      517.53067     -97033.902      199.90243      199.43127      550.36572    
      5500  -97539.996      516.26503     -97023.731      199.88767      199.41447      550.63367    
      5600  -97539.917      517.81696     -97022.1        199.87505      199.40036      550.90162    
      5700  -97525.959      504.75103     -97021.208      199.86661      199.39042      551.16957    
      5800  -97524.296      511.77211     -97012.524      199.85204      199.37329      551.43752    
      5900  -97512.126      515.23877     -96996.887      199.83929      199.35821      551.70546    
      6000  -97496.228      516.81098     -96979.417      199.83121      199.34789      551.97341    
      6100  -97485.616      518.42161     -96967.194      199.8174       199.32995      552.24136    
      6200  -97481.235      517.67712     -96963.558      199.80369      199.31178      552.50931    
      6300  -97475.182      513.43574     -96961.746      199.79475      199.29834      552.77726    
      6400  -97464.449      509.79281     -96954.656      199.78237      199.28022      553.04521    
      6500  -97455.029      514.17006     -96940.858      199.76897      199.26024      553.31315    
      6600  -97440.49       517.35885     -96923.131      199.75992      199.24371      553.5811     
      6700  -97424.454      515.50902     -96908.945      199.74915      199.22465      553.84905    
      6800  -97421.676      521.15157     -96900.524      199.73552      199.20163      554.117      
      6900  -97413.241      516.99201     -96896.249      199.72646      199.182        554.38495    
      7000  -97404.869      514.5357      -96890.333      199.71751      199.16116      554.6529     
      7100  -97390.911      511.76884     -96879.142      199.70542      199.13665      554.92084    
      7200  -97376.807      514.03912     -96862.767      199.69568      199.11279      555.18879    
      7300  -97360.39       515.6339      -96844.756      199.68732      199.08934      555.45674    
      7400  -97351.206      519.82766     -96831.379      199.67717      199.06356      555.72469    
      7500  -97343.772      518.7343      -96825.037      199.6679       199.03755      555.99264    
      7600  -97334.489      512.70209     -96821.787      199.65951      199.01183      556.26058    
      7700  -97324.857      511.48593     -96813.371      199.64972      198.98372      556.52853    
      7800  -97308.636      510.70106     -96797.935      199.6399       198.95496      556.79648    
      7900  -97294.753      517.63616     -96777.117      199.63169      198.92766      557.06443    
      8000  -97277.632      518.26955     -96759.363      199.62307      198.89926      557.33238    
      8100  -97265.493      515.14504     -96750.348      199.61256      198.86827      557.60033    
      8200  -97261.822      514.48138     -96747.34       199.60324      198.83837      557.86827    
      8300  -97248.65       508.6261      -96740.024      199.59344      198.8084       558.13622    
      8400  -97234.503      510.29492     -96724.208      199.58261      198.77688      558.40417    
      8500  -97218.083      515.09105     -96702.992      199.57267      198.74596      558.67212    
      8600  -97200.802      516.80766     -96683.995      199.56287      198.71565      558.94007    
      8700  -97190.763      518.09961     -96672.663      199.5507       198.68279      559.20802    
      8800  -97179.413      512.4911      -96666.922      199.53898      198.65082      559.47596    
      8900  -97169.452      509.86722     -96659.584      199.5274       198.61965      559.74391    
      9000  -97154.759      509.47234     -96645.287      199.51395      198.58651      560.01186    
      9100  -97142.148      517.02208     -96625.126      199.50137      198.55497      560.27981    
      9200  -97122.964      517.0971      -96605.867      199.48836      198.5238       560.54776    
      9300  -97111.347      519.33398     -96592.013      199.47185      198.48985      560.81571    
      9400  -97097.711      513.7835      -96583.928      199.45698      198.45789      561.08365    
      9500  -97084.545      508.42955     -96576.116      199.44299      198.42746      561.3516     
      9600  -97073.142      510.77354     -96562.369      199.42418      198.39353      561.61955    
      9700  -97053.761      510.65025     -96543.11       199.40797      198.36242      561.8875     
      9800  -97037.321      514.75754     -96522.564      199.39227      198.33238      562.15545    
      9900  -97019.965      515.30193     -96504.663      199.37009      198.29757      562.42339    
     10000  -97006.602      513.50658     -96493.096      199.35095      198.26683      562.69134    
     10100  -96997.311      512.71627     -96484.595      199.33307      198.23759      562.95929    
     10200  -96979.641      507.05733     -96472.583      199.3091       198.20327      563.22724    
     10300  -96964.541      509.27578     -96455.265      199.28802      198.17285      563.49519    
     10400  -96948.417      514.65177     -96433.765      199.26896      198.14509      563.76314    
     10500  -96932.443      518.63824     -96413.805      199.24296      198.11046      564.03108    
     10600  -96912.109      511.44766     -96400.661      199.21978      198.07938      564.29903    
     10700  -96901.994      510.16047     -96391.833      199.19943      198.05141      564.56698    
     10800  -96892.564      513.27182     -96379.292      199.17159      198.01597      564.83493    
     10900  -96872.961      511.27517     -96361.686      199.14695      197.98424      565.10288    
     11000  -96854.069      513.63804     -96340.431      199.12591      197.95626      565.37083    
     11100  -96836.968      517.20688     -96319.761      199.0978       197.92095      565.63877    
     11200  -96821.066      516.78977     -96304.276      199.07141      197.88738      565.90672    
     11300  -96805.612      512.46219     -96293.15       199.04976      197.85842      566.17467    
     11400  -96790.806      509.69947     -96281.106      199.02129      197.82263      566.44262    
     11500  -96778.316      514.12445     -96264.192      198.99406      197.78691      566.71057    
     11600  -96760.533      517.19558     -96243.337      198.97247      197.75691      566.97851    
     11700  -96738.349      517.83961     -96220.51       198.94392      197.71999      567.24646    
     11800  -96720.234      519.03113     -96201.203      198.91664      197.68326      567.51441    
     11900  -96700.697      512.39755     -96188.3        198.89576      197.652        567.78236    
     12000  -96689.241      512.32251     -96176.919      198.86819      197.61384      568.05031    
     12100  -96672.731      509.8091      -96162.922      198.84082      197.57557      568.31826    
     12200  -96654.838      511.2582      -96143.58       198.82041      197.54161      568.5862     
     12300  -96634.381      516.12947     -96118.252      198.79393      197.50193      568.85415    
     12400  -96614.167      516.46994     -96097.697      198.76794      197.46214      569.1221     
     12500  -96594.706      512.22942     -96082.477      198.74797      197.4269       569.39005    
     12600  -96580.018      507.18255     -96072.836      198.72361      197.38567      569.658      
     12700  -96564.678      505.55548     -96059.122      198.69882      197.34441      569.92595    
     12800  -96547.907      509.47301     -96038.434      198.67972      197.30791      570.19389    
     12900  -96531.41       516.23255     -96015.177      198.65644      197.26569      570.46184    
     13000  -96507.641      515.61666     -95992.025      198.63356      197.22289      570.72979    
     13100  -96488.042      515.46857     -95972.573      198.61563      197.18563      570.99774    
     13200  -96473.423      515.93585     -95957.487      198.5926       197.14211      571.26569    
     13300  -96458.783      511.91849     -95946.864      198.57029      197.09836      571.53364    
     13400  -96440.606      512.47531     -95928.13       198.55423      197.06065      571.80158    
     13500  -96413.891      512.73058     -95901.16       198.5323       197.01772      572.06953    
     13600  -96396.259      517.10101     -95879.158      198.5102       196.97354      572.33748    
     13700  -96371.743      511.53224     -95860.211      198.49481      196.93513      572.60543    
     13800  -96357.518      515.29076     -95842.228      198.47389      196.89301      572.87338    
     13900  -96338.628      511.46986     -95827.158      198.45176      196.84963      573.14132    
     14000  -96318.514      506.38787     -95812.126      198.43615      196.8116       573.40927    
     14100  -96301.378      515.02042     -95786.358      198.41546      196.77034      573.67722    
     14200  -96278.126      518.60132     -95759.525      198.39299      196.72902      573.94517    
     14300  -96253.156      513.71599     -95739.44       198.37791      196.6939       574.21312    
     14400  -96234.909      511.96159     -95722.947      198.35793      196.65489      574.48107    
     14500  -96227.514      518.22224     -95709.291      198.33438      196.61446      574.74901    
     14600  -96201.747      508.70242     -95693.044      198.31779      196.58081      575.01696    
     14700  -96172.757      510.40879     -95662.348      198.29782      196.54414      575.28491    
     14800  -96150.137      513.65865     -95636.478      198.27482      196.50635      575.55286    
     14900  -96135.395      519.01214     -95616.383      198.25767      196.4754       575.82081    
     15000  -96117.877      518.18693     -95599.69       198.23771      196.44192      576.08876    
     15100  -96094.179      510.52215     -95583.656      198.21391      196.40665      576.3567     
     15200  -96074.906      510.08901     -95564.817      198.19556      196.37814      576.62465    
     15300  -96053.31       517.08529     -95536.225      198.17544      196.34809      576.8926     
     15400  -96023.614      514.7814      -95508.833      198.15126      196.31545      577.16055    
     15500  -96001.694      512.65418     -95489.04       198.13134      196.28884      577.4285     
     15600  -95982.028      508.38431     -95473.644      198.11061      196.262        577.69645    
     15700  -95965.322      508.9617      -95456.36       198.08641      196.23203      577.96439    
     15800  -95940.106      505.19838     -95434.907      198.0667       196.20826      578.23234    
     15900  -95917.16       513.07667     -95404.083      198.04589      196.18449      578.50029    
     16000  -95893.114      515.30188     -95377.813      198.02163      196.15698      578.76824    
     16100  -95871.143      513.02802     -95358.115      198.00134      196.13451      579.03619    
     16200  -95852.498      509.98053     -95342.518      197.98053      196.11267      579.30413    
     16300  -95833.782      511.66305     -95322.119      197.95579      196.08688      579.57208    
     16400  -95808.229      517.10813     -95291.121      197.93585      196.06632      579.84003    
     16500  -95781.215      518.02593     -95263.189      197.9171       196.04782      580.10798    
     16600  -95758.698      514.43992     -95244.258      197.89239      196.02344      580.37593    
     16700  -95742.471      514.72003     -95227.751      197.8719       196.0027       580.64388    
     16800  -95717.997      510.7679      -95207.229      197.85508      195.98583      580.91182    
     16900  -95697.177      514.41574     -95182.761      197.83249      195.96379      581.17977    
     17000  -95674.803      525.11872     -95149.684      197.81206      195.94305      581.44772    
     17100  -95639.64       515.23814     -95124.402      197.79731      195.92707      581.71567    
     17200  -95624.76       517.01948     -95107.741      197.77625      195.90539      581.98362    
     17300  -95603.708      514.41549     -95089.293      197.75644      195.88411      582.25157    
     17400  -95580.16       513.41574     -95066.744      197.74345      195.86819      582.51951    
     17500  -95553.682      512.1631      -95041.519      197.72567      195.84736      582.78746    
     17600  -95526.333      515.4261      -95010.907      197.7075       195.82572      583.05541    
     17700  -95503.526      522.12357     -94981.402      197.69635      195.81013      583.32336    
     17800  -95475.458      512.07819     -94963.38       197.68132      195.79009      583.59131    
     17900  -95460.234      515.84608     -94944.388      197.66371      195.767        583.85926    
     18000  -95438.989      516.32931     -94922.66       197.65403      195.75095      584.1272     
     18100  -95408.303      508.93965     -94899.364      197.64176      195.73137      584.39515    
     18200  -95387.207      515.64293     -94871.564      197.62613      195.70781      584.6631     
     18300  -95360.994      519.88194     -94841.112      197.61845      195.69177      584.93105    
     18400  -95336.125      520.8133      -94815.312      197.60855      195.67229      585.199      
     18500  -95313.268      512.81372     -94800.454      197.59498      195.6481       585.46694    
     18600  -95292.803      511.90935     -94780.894      197.58827      195.63132      585.73489    
     18700  -95266.065      512.48269     -94753.582      197.58069      195.61249      586.00284    
     18800  -95237.448      514.83271     -94722.616      197.56873      195.58781      586.27079    
     18900  -95210.73       514.66846     -94696.062      197.5629       195.57022      586.53874    
     19000  -95189.984      516.31904     -94673.665      197.55724      195.55249      586.80669    
     19100  -95171.619      510.60796     -94661.011      197.54682      195.5287       587.07463    
     19200  -95145.485      508.64825     -94636.837      197.54116      195.51047      587.34258    
     19300  -95114.872      510.76687     -94604.105      197.53626      195.49333      587.61053    
     19400  -95084.677      511.64076     -94573.036      197.52622      195.47059      587.87848    
     19500  -95063.384      517.48529     -94545.898      197.52075      195.45225      588.14643    
     19600  -95031.121      509.79132     -94521.33       197.51652      195.43603      588.41438    
     19700  -95017.452      515.22892     -94502.223      197.50736      195.41507      588.68232    
     19800  -94987.325      505.54411     -94481.781      197.50108      195.39677      588.95027    
     19900  -94960.957      510.29981     -94450.657      197.4968       195.38128      589.21822    
     20000  -94931.979      512.28399     -94419.695      197.48868      195.36285      589.48617    
     20100  -94906.033      513.5364      -94392.497      197.48102      195.34549      589.75412    
     20200  -94882.304      515.33284     -94366.972      197.47653      195.3317       590.02207    
     20300  -94860.505      517.24591     -94343.259      197.46729      195.31501      590.29001    
     20400  -94832.195      510.75285     -94321.442      197.45803      195.29901      590.55796    
     20500  -94800.982      506.09073     -94294.892      197.45226      195.28734      590.82591    
     20600  -94771.788      511.50875     -94260.28       197.44246      195.27292      591.09386    
     20700  -94747.908      517.32702     -94230.581      197.43205      195.25881      591.36181    
     20800  -94722.335      516.62905     -94205.706      197.42458      195.24857      591.62975    
     20900  -94697.431      513.59756     -94183.834      197.41356      195.23602      591.8977     
     21000  -94675.421      509.17926     -94166.242      197.40075      195.2227       592.16565    
     21100  -94645.038      507.3692      -94137.668      197.39205      195.21405      592.4336     
     21200  -94616.846      513.44402     -94103.402      197.38116      195.20449      592.70155    
     21300  -94586.694      513.59864     -94073.095      197.36645      195.19204      592.9695     
     21400  -94560.861      518.0103      -94042.851      197.3561       195.18466      593.23744    
     21500  -94531.263      518.53274     -94012.73       197.34452      195.17689      593.50539    
     21600  -94502.197      516.85625     -93985.341      197.32882      195.16599      593.77334    
     21700  -94475.625      510.01374     -93965.611      197.31571      195.15843      594.04129    
     21800  -94454.765      512.68094     -93942.084      197.30289      195.15168      594.30924    
     21900  -94417.632      507.77595     -93909.856      197.28751      195.14273      594.57719    
     22000  -94395.533      520.0896      -93875.444      197.2733       195.13527      594.84513    
     22100  -94367.619      519.93204     -93847.687      197.26056      195.12964      595.11308    
     22200  -94337.356      514.12781     -93823.228      197.24548      195.12202      595.38103    
     22300  -94312.318      511.94888     -93800.369      197.23026      195.11413      595.64898    
     22400  -94285.908      512.92928     -93772.979      197.21631      195.10754      595.91693    
     22500  -94251.271      515.87837     -93735.392      197.20223      195.10107      596.18488    
     22600  -94215.099      511.42033     -93703.679      197.18706      195.09337      596.45282    
     22700  -94194.644      515.93385     -93678.71       197.17212      195.08565      596.72077    
     22800  -94168.338      511.00766     -93657.33       197.15846      195.07865      596.98872    
     22900  -94140.52       508.43064     -93632.09       197.14491      195.07132      597.25667    
     23000  -94110.723      510.62087     -93600.102      197.12994      195.06273      597.52462    
     23100  -94081.54       513.78284     -93567.757      197.11648      195.05399      597.79256    
     23200  -94055.749      516.95347     -93538.796      197.10397      195.04599      598.06051    
     23300  -94021.433      513.08907     -93508.344      197.09032      195.03632      598.32846    
     23400  -93994.671      518.24196     -93476.429      197.07739      195.02582      598.59641    
     23500  -93960.344      514.69428     -93445.649      197.06605      195.01649      598.86436    
     23600  -93937.105      517.2184      -93419.887      197.0544       195.00547      599.13231    
     23700  -93908.968      510.19417     -93398.773      197.04258      194.9931       599.40025    
     23800  -93885.007      514.57539     -93370.431      197.03231      194.9814       599.6682     
     23900  -93846.056      512.05516     -93334.001      197.02272      194.96959      599.93615    
     24000  -93814.15       513.34007     -93300.81       197.01263      194.95581      600.2041     
     24100  -93789.536      517.5728      -93271.963      197.00331      194.94199      600.47205    
     24200  -93754.485      508.99687     -93245.488      196.99555      194.9286       600.74       
     24300  -93733.548      513.72138     -93219.827      196.98675      194.91379      601.00794    
     24400  -93700.633      506.32324     -93194.31       196.97864      194.8981       601.27589    
     24500  -93673.707      513.54852     -93160.159      196.97183      194.88293      601.54384    
     24600  -93636.953      513.87698     -93123.076      196.966        194.86892      601.81179    
     24700  -93608.514      516.51123     -93092.003      196.95807      194.85147      602.07974    
     24800  -93579.118      513.90122     -93065.216      196.95131      194.83393      602.34769    
     24900  -93552.22       507.92682     -93044.294      196.94663      194.81921      602.61563    
     25000  -93528.081      512.09209     -93015.989      196.93879      194.80059      602.88358    
     25100  -93488.045      507.24218     -92980.803      196.93225      194.78199      603.15153    
     25200  -93461.219      514.41993     -92946.799      196.92825      194.76702      603.41948    
     25300  -93425.736      514.68406     -92911.052      196.92083      194.74891      603.68743    
     25400  -93392.155      514.74289     -92877.412      196.91336      194.7292       603.95537    
     25500  -93367.616      519.71144     -92847.905      196.90972      194.71401      604.22332    
     25600  -93339.499      513.37936     -92826.12       196.90248      194.69644      604.49127    
     25700  -93309.271      509.97796     -92799.293      196.89297      194.67622      604.75922    
     25800  -93278.549      514.85823     -92763.691      196.88847      194.66101      605.02717    
     25900  -93242.112      514.36882     -92727.743      196.88086      194.64421      605.29512    
     26000  -93205.028      509.26989     -92695.758      196.86959      194.62419      605.56306    
     26100  -93181.948      517.16904     -92664.779      196.86401      194.60917      605.83101    
     26200  -93148.636      515.42969     -92633.206      196.85626      194.59404      606.09896    
     26300  -93114.505      516.3814      -92598.123      196.84302      194.57493      606.36691    
     26400  -93078.636      515.4956      -92563.141      196.83484      194.55952      606.63486    
     26500  -93052.397      518.61354     -92533.783      196.82628      194.54586      606.90281    
     26600  -93021.562      509.59182     -92511.97       196.81177      194.52837      607.17075    
     26700  -92990.318      507.61575     -92482.702      196.80045      194.51317      607.4387     
     26800  -92962.229      513.39138     -92448.838      196.79149      194.50149      607.70665    
     26900  -92927.845      517.13494     -92410.71       196.77455      194.48458      607.9746     
     27000  -92891.625      514.06171     -92377.563      196.75987      194.47027      608.24255    
     27100  -92863.083      515.20072     -92347.883      196.75011      194.46052      608.5105     
     27200  -92830.752      512.58085     -92318.171      196.73241      194.44558      608.77844    
     27300  -92806.814      517.02541     -92289.788      196.71437      194.43174      609.04639    
     27400  -92773.406      509.57716     -92263.829      196.70226      194.42277      609.31434    
     27500  -92739.929      509.75824     -92230.171      196.68388      194.4097       609.58229    
     27600  -92703.321      514.01148     -92189.309      196.66402      194.39667      609.85024    
     27700  -92668.94       514.45143     -92154.489      196.65013      194.38894      610.11818    
     27800  -92633.292      511.8024      -92121.489      196.63145      194.37724      610.38613    
     27900  -92606.591      514.5327      -92092.058      196.60972      194.36423      610.65408    
     28000  -92577.029      508.92489     -92068.104      196.59333      194.35606      610.92203    
     28100  -92550.831      514.37128     -92036.46       196.57441      194.3456       611.18998    
     28200  -92510.727      514.22008     -91996.507      196.5526       194.33294      611.45793    
     28300  -92474.001      513.13241     -91960.869      196.53474      194.32438      611.72587    
     28400  -92446.814      518.79213     -91928.022      196.51577      194.31417      611.99382    
     28500  -92411.536      514.77789     -91896.758      196.49385      194.30144      612.26177    
     28600  -92382.605      513.68033     -91868.924      196.47473      194.29182      612.52972    
     28700  -92349.798      508.31917     -91841.479      196.45548      194.28048      612.79767    
     28800  -92314.597      510.45965     -91804.137      196.43458      194.26712      613.06562    
     28900  -92279.983      516.83864     -91763.144      196.41619      194.25726      613.33356    
     29000  -92243.355      514.01501     -91729.34       196.39773      194.24504      613.60151    
     29100  -92212.383      514.26858     -91698.115      196.37731      194.22972      613.86946    
     29200  -92179.556      508.96521     -91670.591      196.35969      194.21824      614.13741    
     29300  -92152.012      509.52081     -91642.491      196.34239      194.20518      614.40536    
     29400  -92116.609      514.29698     -91602.312      196.32292      194.18829      614.6733     
     29500  -92073.93       511.14884     -91562.782      196.30682      194.17551      614.94125    
     29600  -92045.311      516.61816     -91528.693      196.29086      194.1615       615.2092     
     29700  -92012.747      517.13145     -91495.615      196.27256      194.14208      615.47715    
     29800  -91976.615      511.92042     -91464.694      196.25735      194.12695      615.7451     
     29900  -91947.391      511.77748     -91435.613      196.24276      194.11172      616.01305    
     30000  -91911.889      508.68274     -91403.207      196.2266       194.09131      616.28099    
     30100  -91875.284      512.11102     -91363.173      196.21226      194.07378      616.54894    
     30200  -91840.196      516.07568     -91324.12       196.19903      194.05662      616.81689    
     30300  -91809.122      516.92109     -91292.2        196.18406      194.03476      617.08484    
     30400  -91777.718      514.8229      -91262.895      196.16993      194.01345      617.35279    
     30500  -91740.375      504.22969     -91236.146      196.15733      193.99458      617.62074    
     30600  -91716.104      507.92477     -91208.179      196.1438       193.97161      617.88868    
     30700  -91675.11       509.37718     -91165.733      196.13093      193.94953      618.15663    
     30800  -91641.919      516.25282     -91125.666      196.11915      193.92913      618.42458    
     30900  -91603.778      516.16728     -91087.611      196.10599      193.90536      618.69253    
     31000  -91562.857      511.27486     -91051.582      196.09338      193.88174      618.96048    
     31100  -91536.873      516.10345     -91020.77       196.08187      193.85995      619.22843    
     31200  -91502.154      507.96924     -90994.185      196.06823      193.83448      619.49637    
     31300  -91468.852      507.91466     -90960.937      196.05565      193.80969      619.76432    
     31400  -91426.929      510.8248      -90916.105      196.04475      193.78785      620.03227    
     31500  -91397.108      517.724       -90879.384      196.03135      193.76258      620.30022    
     31600  -91360.995      514.52891     -90846.467      196.01844      193.7372       620.56817    
     31700  -91321.588      504.58035     -90817.008      196.00708      193.71521      620.83611    
     31800  -91292.039      507.67852     -90784.361      195.99239      193.68959      621.10406    
     31900  -91256.019      513.57723     -90742.442      195.97874      193.66494      621.37201    
     32000  -91213.962      511.58092     -90702.381      195.96656      193.64331      621.63996    
     32100  -91189.798      520.32841     -90669.47       195.95036      193.61801      621.90791    
     32200  -91147.735      506.99447     -90640.741      195.93449      193.59318      622.17586    
     32300  -91123.951      513.01795     -90610.933      195.92135      193.57303      622.4438     
     32400  -91083.596      510.93797     -90572.658      195.90399      193.54903      622.71175    
     32500  -91046.904      520.34696     -90526.557      195.88604      193.52468      622.9797     
     32600  -91011.968      518.08964     -90493.878      195.87204      193.50636      623.24765    
     32700  -90976.333      511.88345     -90464.449      195.85325      193.48373      623.5156     
     32800  -90941.105      508.84261     -90432.263      195.83139      193.45904      623.78355    
     32900  -90902.463      507.86335     -90394.6        195.81595      193.44195      624.05149    
     33000  -90870.24       519.56        -90350.68       195.79754      193.42264      624.31944    
     33100  -90834.062      519.28458     -90314.778      195.77396      193.39912      624.58739    
     33200  -90796.67       511.66733     -90285.003      195.75518      193.38139      624.85534    
     33300  -90768.322      514.94375     -90253.378      195.73586      193.3645       625.12329    
     33400  -90735.185      517.90367     -90217.282      195.71101      193.34276      625.39124    
     33500  -90692.87       512.74593     -90180.124      195.68956      193.32537      625.65918    
     33600  -90654.033      511.39025     -90142.642      195.67007      193.31085      625.92713    
     33700  -90614.803      513.01191     -90101.791      195.64444      193.29087      626.19508    
     33800  -90581.585      522.82138     -90058.763      195.61992      193.27299      626.46303    
     33900  -90543.365      514.20567     -90029.16       195.59967      193.25991      626.73098    
     34000  -90511.176      511.63721     -89999.538      195.5743       193.24154      626.99892    
     34100  -90474.509      507.83746     -89966.671      195.54762      193.22327      627.26687    
     34200  -90447.174      516.50921     -89930.665      195.5256       193.2104       627.53482    
     34300  -90404.405      517.27609     -89887.129      195.50061      193.19379      627.80277    
     34400  -90370.636      523.36749     -89847.268      195.47366      193.17601      628.07072    
     34500  -90331.035      516.20725     -89814.827      195.45072      193.16237      628.33867    
     34600  -90293.213      510.59317     -89782.62       195.42563      193.14596      628.60661    
     34700  -90258.952      511.16745     -89747.785      195.39805      193.12765      628.87456    
     34800  -90219.094      509.12957     -89709.965      195.37491      193.11345      629.14251    
     34900  -90187.129      523.47503     -89663.654      195.3511       193.09821      629.41046    
     35000  -90145.998      520.27414     -89625.724      195.32435      193.07922      629.67841    
     35100  -90108.649      512.16933     -89596.48       195.29994      193.06251      629.94636    
     35200  -90081.215      515.66533     -89565.549      195.27683      193.04675      630.2143     
     35300  -90046.593      515.8911      -89530.702      195.2515       193.02718      630.48225    
     35400  -90005.419      511.44436     -89493.975      195.22852      193.00963      630.7502     
     35500  -89965.718      515.24615     -89450.472      195.20653      192.99235      631.01815    
     35600  -89919.889      509.87387     -89410.015      195.1825       192.97167      631.2861     
     35700  -89890.17       511.53341     -89378.637      195.16022      192.95196      631.55405    
     35800  -89860.064      512.04106     -89348.023      195.13859      192.93213      631.82199    
     35900  -89826.235      514.50889     -89311.726      195.11621      192.91022      632.08994    
     36000  -89784.374      510.28178     -89274.092      195.09673      192.89014      632.35789    
     36100  -89747.019      512.01873     -89235          195.07648      192.86842      632.62584    
     36200  -89709.808      513.82266     -89195.986      195.05497      192.84407      632.89379    
     36300  -89671.326      513.68987     -89157.636      195.03645      192.82198      633.16173    
     36400  -89640.412      517.15371     -89123.259      195.01896      192.80066      633.42968    
     36500  -89605.442      510.99058     -89094.451      194.99869      192.77423      633.69763    
     36600  -89568.79       510.74731     -89058.042      194.9803       192.74898      633.96558    
     36700  -89529.252      515.64985     -89013.602      194.96486      192.72693      634.23353    
     36800  -89483.274      511.67128     -88971.603      194.94671      192.70011      634.50148    
     36900  -89448.173      514.64818     -88933.525      194.92815      192.67204      634.76942    
     37000  -89411.676      511.78667     -88899.89       194.91421      192.64956      635.03737    
     37100  -89386.274      514.30285     -88871.971      194.89797      192.62362      635.30532    
     37200  -89346.388      509.25772     -88837.13       194.88022      192.59513      635.57327    
     37300  -89307.011      512.4974      -88794.514      194.86542      192.57072      635.84122    
     37400  -89264.478      509.55606     -88754.922      194.85089      192.54509      636.10917    
     37500  -89226.694      511.35719     -88715.337      194.83292      192.51595      636.37711    
     37600  -89190.069      515.41004     -88674.659      194.81777      192.49037      636.64506    
     37700  -89155.232      520.49755     -88634.735      194.80445      192.46609      636.91301    
     37800  -89116.002      520.97142     -88595.031      194.78734      192.43767      637.18096    
     37900  -89075.235      513.3763      -88561.859      194.77182      192.4123       637.44891    
     38000  -89045.976      513.78304     -88532.193      194.75827      192.38844      637.71686    
     38100  -89005.633      509.86425     -88495.769      194.74075      192.3608       637.9848     
     38200  -88967.534      514.7983      -88452.735      194.72377      192.3354       638.25275    
     38300  -88922.384      513.50628     -88408.878      194.71036      192.31309      638.5207     
     38400  -88882.17       510.04094     -88372.129      194.69336      192.28728      638.78865    
     38500  -88856.199      518.45782     -88337.742      194.67439      192.26205      639.0566     
     38600  -88817.417      514.64527     -88302.771      194.65991      192.24076      639.32454    
     38700  -88776.936      511.5991      -88265.337      194.64315      192.21772      639.59249    
     38800  -88739.548      516.64438     -88222.904      194.62318      192.19359      639.86044    
     38900  -88696.077      516.57753     -88179.5        194.60601      192.17231      640.12839    
     39000  -88664.842      521.51379     -88143.328      194.589        192.15195      640.39634    
     39100  -88630.124      516.06466     -88114.06       194.56805      192.12974      640.66429    
     39200  -88593.269      512.58004     -88080.689      194.54863      192.10975      640.93223    
     39300  -88551.438      510.95943     -88040.479      194.53048      192.09133      641.20018    
     39400  -88514.395      516.04067     -87998.354      194.50828      192.07118      641.46813    
     39500  -88471.224      512.86194     -87958.362      194.48712      192.05197      641.73608    
     39600  -88432.72       512.91295     -87919.807      194.46717      192.03489      642.00403    
     39700  -88395.021      516.26252     -87878.759      194.44458      192.01667      642.27198    
     39800  -88352.105      519.02568     -87833.079      194.42213      191.99856      642.53992    
     39900  -88319.206      520.83958     -87798.367      194.40163      191.98366      642.80787    
     40000  -88282.837      514.14156     -87768.696      194.37789      191.96673      643.07582    
     40100  -88242.529      509.13788     -87733.391      194.35367      191.94919      643.34377    
     40200  -88206.547      512.36815     -87694.179      194.33237      191.93608      643.61172    
     40300  -88167.32       518.02917     -87649.291      194.309        191.92131      643.87967    
     40400  -88122.087      516.429       -87605.658      194.28402      191.90454      644.14761    
     40500  -88082.997      511.80259     -87571.195      194.26079      191.89143      644.41556    
     40600  -88058.072      521.12868     -87536.943      194.23758      191.87755      644.68351    
     40700  -88017.197      515.61168     -87501.585      194.21233      191.86137      644.95146    
     40800  -87980.407      515.11187     -87465.295      194.18891      191.84825      645.21941    
     40900  -87937.043      510.03098     -87427.012      194.16688      191.83561      645.48735    
     41000  -87894.373      511.38929     -87382.983      194.14177      191.81969      645.7553     
     41100  -87859.472      519.14621     -87340.326      194.11757      191.80546      646.02325    
     41200  -87820.071      514.98515     -87305.086      194.0967       191.7931       646.2912     
     41300  -87783.08       508.17917     -87274.901      194.07249      191.77777      646.55915    
     41400  -87753.504      515.85078     -87237.653      194.04765      191.76152      646.8271     
     41500  -87706.457      510.18316     -87196.273      194.02789      191.74913      647.09504    
     41600  -87670.828      515.54975     -87155.279      194.00638      191.73467      647.36299    
     41700  -87628.955      513.57096     -87115.384      193.98198      191.71676      647.63094    
     41800  -87587.692      510.64815     -87077.044      193.96297      191.70291      647.89889    
     41900  -87553.592      514.83836     -87038.754      193.94406      191.68867      648.16684    
     42000  -87513.128      513.36737     -86999.76       193.92119      191.67002      648.43479    
     42100  -87477.605      516.35526     -86961.25       193.90256      191.65391      648.70273    
     42200  -87437.304      514.67515     -86922.628      193.88618      191.64003      648.97068    
     42300  -87399.579      515.1281      -86884.451      193.86619      191.62106      649.23863    
     42400  -87356.498      511.46329     -86845.035      193.84818      191.60254      649.50658    
     42500  -87322.043      519.84246     -86802.201      193.83316      191.5874       649.77453    
     42600  -87276.387      517.35292     -86759.034      193.8168       191.56921      650.04248    
     42700  -87237.421      515.0161      -86722.405      193.79992      191.54891      650.31042    
     42800  -87207.406      513.7906      -86693.615      193.78598      191.53199      650.57837    
     42900  -87169.431      513.13192     -86656.299      193.77211      191.51305      650.84632    
     43000  -87128.632      515.74502     -86612.887      193.75602      191.49123      651.11427    
     43100  -87083.695      514.61259     -86569.082      193.74366      191.47296      651.38222    
     43200  -87046.218      516.77717     -86529.441      193.73233      191.45467      651.65016    
     43300  -87006.716      514.65654     -86492.06       193.71729      191.43209      651.91811    
     43400  -86969.045      514.41762     -86454.627      193.70512      191.41186      652.18606    
     43500  -86934.006      516.55814     -86417.448      193.69531      191.39357      652.45401    
     43600  -86892.277      509.9724      -86382.304      193.68188      191.37113      652.72196    
     43700  -86857.49       509.6992      -86347.791      193.66923      191.34864      652.98991    
     43800  -86820.365      514.43834     -86305.927      193.66021      191.32958      653.25785    
     43900  -86766.567      509.0056      -86257.561      193.64853      191.30738      653.5258     
     44000  -86732.465      516.72455     -86215.741      193.63545      191.28387      653.79375    
     44100  -86693.397      515.61558     -86177.781      193.62721      191.26475      654.0617     
     44200  -86659.12       514.31921     -86144.8        193.61775      191.24483      654.32965    
     44300  -86625.059      513.1377      -86111.921      193.60458      191.22138      654.5976     
     44400  -86585.354      514.88444     -86070.47       193.5941       191.20031      654.86554    
     44500  -86541.938      514.9083      -86027.03       193.58501      191.18133      655.13349    
     44600  -86503.335      517.67575     -85985.659      193.57311      191.15978      655.40144    
     44700  -86461.776      516.56705     -85945.209      193.56133      191.13825      655.66939    
     44800  -86418.049      513.75961     -85904.289      193.5506       191.11892      655.93734    
     44900  -86378.189      516.58936     -85861.599      193.53879      191.09904      656.20529    
     45000  -86338.229      514.79002     -85823.439      193.5267       191.0789       656.47323    
     45100  -86303.453      512.40409     -85791.049      193.51443      191.06015      656.74118    
     45200  -86266.216      511.61125     -85754.605      193.5024       191.04176      657.00913    
     45300  -86224.72       513.53931     -85711.18       193.48934      191.02328      657.27708    
     45400  -86185.743      522.66591     -85663.077      193.47496      191.00504      657.54503    
     45500  -86139.848      515.94649     -85623.902      193.46262      190.9887       657.81297    
     45600  -86104.518      515.43619     -85589.082      193.44901      190.97265      658.08092    
     45700  -86065.55       510.75211     -85554.798      193.43341      190.95557      658.34887    
     45800  -86029.531      512.89922     -85516.631      193.41918      190.93965      658.61682    
     45900  -85987.25       514.48588     -85472.764      193.4041       190.92525      658.88477    
     46000  -85948.033      524.52601     -85423.507      193.3878       190.90988      659.15272    
     46100  -85899.726      513.28839     -85386.437      193.37325      190.89621      659.42066    
     46200  -85866.056      513.92887     -85352.127      193.35678      190.88327      659.68861    
     46300  -85837.315      521.43117     -85315.884      193.3391       190.86941      659.95656    
     46400  -85788.742      510.68461     -85278.057      193.32333      190.85688      660.22451    
     46500  -85749.789      511.10116     -85238.688      193.30637      190.84595      660.49246    
     46600  -85708.12       514.78115     -85193.339      193.28736      190.83332      660.76041    
     46700  -85667.616      519.52027     -85148.096      193.27034      190.82188      661.02835    
     46800  -85630.652      517.88298     -85112.769      193.25281      190.81274      661.2963     
     46900  -85595.822      516.02867     -85079.794      193.23382      190.80161      661.56425    
     47000  -85549.753      509.71476     -85040.038      193.21461      190.78999      661.8322     
     47100  -85514.511      515.91915     -84998.592      193.19654      190.78206      662.10015    
     47200  -85467.513      512.34676     -84955.166      193.17841      190.77218      662.3681     
     47300  -85425.431      519.60545     -84905.826      193.15799      190.76072      662.63604    
     47400  -85388.322      520.11742     -84868.204      193.13982      190.75372      662.90399    
     47500  -85354.922      519.61693     -84835.305      193.12248      190.7457       663.17194    
     47600  -85309.9        511.7293      -84798.171      193.10134      190.73369      663.43989    
     47700  -85272.602      512.86511     -84759.737      193.08131      190.7246       663.70784    
     47800  -85236.532      516.48202     -84720.05       193.06504      190.71805      663.97578    
     47900  -85193.199      515.42509     -84677.774      193.04526      190.70777      664.24373    
     48000  -85145.114      513.51832     -84631.595      193.02474      190.69689      664.51168    
     48100  -85104.409      513.98433     -84590.425      193.00885      190.68939      664.77963    
     48200  -85070.678      512.32104     -84558.357      192.99103      190.68041      665.04758    
     48300  -85035.911      513.87839     -84522.033      192.97046      190.66841      665.31553    
     48400  -84995.484      514.43315     -84481.05       192.95373      190.65907      665.58347    
     48500  -84951.029      512.88135     -84438.148      192.9375       190.65057      665.85142    
     48600  -84910.818      518.23439     -84392.584      192.91812      190.63779      666.11937    
     48700  -84866.947      520.14898     -84346.798      192.90047      190.62549      666.38732    
     48800  -84828.776      516.71732     -84312.058      192.8865       190.61686      666.65527    
     48900  -84795.779      517.22143     -84278.557      192.8697       190.604        666.92322    
     49000  -84749.854      510.67905     -84239.175      192.85216      190.58969      667.19116    
     49100  -84713.669      514.55634     -84199.112      192.83953      190.58001      667.45911    
     49200  -84670.664      512.14515     -84158.519      192.82505      190.56672      667.72706    
     49300  -84629.69       514.46223     -84115.228      192.80737      190.54998      667.99501    
     49400  -84588.297      516.45171     -84071.846      192.79509      190.5383       668.26296    
     49500  -84549.528      515.30858     -84034.219      192.78371      190.5256       668.5309     
     49600  -84514.428      513.8393      -84000.588      192.76738      190.50766      668.79885    
     49700  -84475.522      514.00096     -83961.521      192.75463      190.49267      669.0668     
     49800  -84432.004      514.65037     -83917.354      192.74559      190.47938      669.33475    
     49900  -84385.011      513.29066     -83871.72       192.7322       190.46167      669.6027     
     50000  -84338.272      516.88276     -83821.39       192.71888      190.44344      669.87065    
     50100  -84301.479      518.49582     -83782.983      192.71101      190.4289       670.13859    
     50200  -84266.983      515.7089      -83751.274      192.70026      190.41204      670.40654    
     50300  -84229.709      514.8543      -83714.855      192.68707      190.39162      670.67449    
     50400  -84190.999      513.0166      -83677.982      192.67951      190.37499      670.94244    
     50500  -84158.808      519.01458     -83639.793      192.67144      190.35927      671.21039    
     50600  -84106.732      507.17557     -83599.556      192.659        190.33761      671.47834    
     50700  -84068.7        514.74033     -83553.959      192.65064      190.3191       671.74628    
     50800  -84025.567      519.34505     -83506.222      192.64484      190.30432      672.01423    
     50900  -83986.45       519.12437     -83467.325      192.6341       190.28314      672.28218    
     51000  -83951.331      518.08759     -83433.244      192.62354      190.2618       672.55013    
     51100  -83906.851      513.71061     -83393.141      192.61804      190.24696      672.81808    
     51200  -83865.63       514.14826     -83351.481      192.60968      190.22765      673.08603    
     51300  -83830.526      519.97752     -83310.548      192.59799      190.20552      673.35397    
     51400  -83786.117      510.42541     -83275.691      192.5919       190.18976      673.62192    
     51500  -83742.893      505.38509     -83237.508      192.58552      190.17233      673.88987    
     51600  -83702.188      511.1665      -83191.021      192.57316      190.15035      674.15782    
     51700  -83658.61       517.24748     -83141.363      192.5645       190.13318      674.42577    
     51800  -83618.728      518.18197     -83100.546      192.55875      190.11726      674.69371    
     51900  -83579.068      516.20429     -83062.863      192.5467       190.09756      674.96166    
     52000  -83541.178      515.65512     -83025.523      192.53551      190.0787       675.22961    
     52100  -83504.214      517.51685     -82986.697      192.52806      190.06313      675.49756    
     52200  -83457.994      510.14622     -82947.847      192.51752      190.04636      675.76551    
     52300  -83425.337      513.15098     -82912.186      192.5048       190.02774      676.03346    
     52400  -83381.194      504.0295      -82877.165      192.49506      190.01213      676.3014     
     52500  -83336.965      507.59336     -82829.372      192.48423      189.99779      676.56935    
     52600  -83293.583      513.23245     -82780.351      192.46906      189.97923      676.8373     
     52700  -83253.118      515.18559     -82737.932      192.45626      189.96323      677.10525    
     52800  -83213.125      514.64119     -82698.484      192.44605      189.95184      677.3732     
     52900  -83170.62       507.5771      -82663.043      192.43123      189.93602      677.64115    
     53000  -83130.642      509.29783     -82621.345      192.41556      189.91969      677.90909    
     53100  -83088.192      511.55683     -82576.636      192.40309      189.90841      678.17704    
     53200  -83046.643      512.84537     -82533.798      192.38925      189.89558      678.44499    
     53300  -83004.3        511.9366      -82492.364      192.37084      189.87986      678.71294    
     53400  -82969.909      516.70302     -82453.206      192.35547      189.86802      678.98089    
     53500  -82927.393      512.31868     -82415.074      192.34198      189.8582       679.24884    
     53600  -82890.118      510.95313     -82379.165      192.32361      189.84476      679.51678    
     53700  -82856.144      513.16309     -82342.981      192.3047       189.83149      679.78473    
     53800  -82809.447      507.17486     -82302.273      192.29021      189.82268      680.05268    
     53900  -82769.353      517.43317     -82251.92       192.27266      189.81219      680.32063    
     54000  -82719.643      516.60198     -82203.041      192.25056      189.7976       680.58858    
     54100  -82679.214      518.05356     -82161.161      192.23383      189.78841      680.85652    
     54200  -82640.591      514.31924     -82126.272      192.2181       189.78088      681.12447    
     54300  -82602.664      515.27198     -82087.393      192.19628      189.76787      681.39242    
     54400  -82559.85       514.78402     -82045.066      192.17623      189.75665      681.66037    
     54500  -82517.391      514.61566     -82002.776      192.15992      189.74993      681.92832    
     54600  -82477.656      511.18034     -81966.476      192.13993      189.73904      682.19627    
     54700  -82438.101      509.78709     -81928.314      192.11875      189.72738      682.46421    
     54800  -82398.11       515.86292     -81882.247      192.10126      189.71993      682.73216    
     54900  -82345.764      510.51351     -81835.251      192.08297      189.71057      683.00011    
     55000  -82304.265      516.84193     -81787.423      192.06009      189.69733      683.26806    
     55100  -82263.673      520.79895     -81742.874      192.04129      189.68839      683.53601    
     55200  -82228.251      518.44078     -81709.81       192.02561      189.68125      683.80396    
     55300  -82187.462      514.32533     -81673.136      192.00447      189.66881      684.0719     
     55400  -82147.911      514.10519     -81633.806      191.98364      189.65675      684.33985    
     55500  -82108.52       515.83671     -81592.683      191.96826      189.64931      684.6078     
     55600  -82070.145      518.09486     -81552.05       191.95037      189.63895      684.87575    
     55700  -82028.522      513.78249     -81514.74       191.92913      189.62491      685.1437     
     55800  -81984.573      510.33466     -81474.238      191.91246      189.61447      685.41165    
     55900  -81939.908      517.17091     -81422.737      191.89679      189.60504      685.67959    
     56000  -81888.468      517.00626     -81371.462      191.87566      189.5893       685.94754    
     56100  -81847.491      515.60501     -81331.886      191.85858      189.57647      686.21549    
     56200  -81810.705      515.89838     -81294.806      191.84545      189.56742      686.48344    
     56300  -81770.045      514.74033     -81255.305      191.82661      189.55204      686.75139    
     56400  -81733.949      518.01058     -81215.938      191.80885      189.53622      687.01933    
     56500  -81690.214      514.65991     -81175.554      191.79691      189.52599      687.28728    
     56600  -81648.57       513.47313     -81135.097      191.78047      189.51117      687.55523    
     56700  -81610.3        512.24718     -81098.053      191.76235      189.49239      687.82318    
     56800  -81568.126      507.27136     -81060.855      191.74971      189.47966      688.09113    
     56900  -81521.934      509.83348     -81012.101      191.73631      189.46536      688.35908    
     57000  -81481.202      517.41957     -80963.782      191.71902      189.44616      688.62702    
     57100  -81433.779      516.02239     -80917.757      191.70566      189.42997      688.89497    
     57200  -81395.877      517.05206     -80878.825      191.69409      189.41573      689.16292    
     57300  -81355.573      514.75528     -80840.818      191.67836      189.39643      689.43087    
     57400  -81310.832      514.58827     -80796.243      191.66513      189.37826      689.69882    
     57500  -81271.493      518.38838     -80753.104      191.65402      189.36303      689.96677    
     57600  -81229.313      514.07197     -80715.241      191.64018      189.34353      690.23471    
     57700  -81182.41       509.34475     -80673.065      191.62592      189.32281      690.50266    
     57800  -81139.099      511.76444     -80627.334      191.61428      189.30543      690.77061    
     57900  -81100.826      516.19936     -80584.627      191.60276      189.28673      691.03856    
     58000  -81061.05       511.97666     -80549.073      191.58944      189.26575      691.30651    
     58100  -81020.523      515.24203     -80505.281      191.57732      189.24693      691.57446    
     58200  -80974.71       516.23584     -80458.474      191.56521      189.22689      691.8424     
     58300  -80928.588      514.31817     -80414.27       191.55274      189.20627      692.11035    
     58400  -80890.538      514.79631     -80375.741      191.54039      189.18603      692.3783     
     58500  -80848.694      514.25218     -80334.442      191.5295       189.16712      692.64625    
     58600  -80798.875      509.60945     -80289.266      191.51779      189.14683      692.9142     
     58700  -80761.607      516.00925     -80245.598      191.50463      189.12561      693.18214    
     58800  -80716.339      511.47509     -80204.864      191.49348      189.10655      693.45009    
     58900  -80677.03       515.05551     -80161.974      191.48207      189.08672      693.71804    
     59000  -80638.844      521.74042     -80117.104      191.468        189.06493      693.98599    
     59100  -80595.854      521.22184     -80074.632      191.4559       189.04498      694.25394    
     59200  -80553.378      519.14728     -80034.231      191.44553      189.0272       694.52189    
     59300  -80508.528      516.74965     -79991.779      191.43148      189.00612      694.78983    
     59400  -80463.146      516.10212     -79947.044      191.41777      188.98515      695.05778    
     59500  -80416.003      513.32967     -79902.673      191.40669      188.96783      695.32573    
     59600  -80371.084      511.8895      -79859.195      191.39292      188.94809      695.59368    
     59700  -80332.866      518.2273      -79814.639      191.37811      188.92756      695.86163    
     59800  -80290.027      518.90719     -79771.119      191.36534      188.90964      696.12958    
     59900  -80242.866      512.72932     -79730.137      191.35188      188.89165      696.39752    
     60000  -80197.514      511.28209     -79686.231      191.33618      188.8718       696.66547    
     60100  -80160.994      519.3379      -79641.656      191.32123      188.85339      696.93342    
     60200  -80117.506      518.45307     -79599.053      191.30745      188.83678      697.20137    
     60300  -80069.876      514.88505     -79554.991      191.29173      188.81818      697.46932    
     60400  -80021.81       511.5442      -79510.266      191.27461      188.7994       697.73727    
     60500  -79982.754      515.74778     -79467.006      191.26077      188.78424      698.00521    
     60600  -79940.005      515.1172      -79424.888      191.24496      188.768        698.27316    
     60700  -79895.343      515.62757     -79379.716      191.22534      188.7485       698.54111    
     60800  -79850.434      515.65677     -79334.777      191.20808      188.73198      698.80906    
     60900  -79811.177      518.66368     -79292.513      191.19315      188.71863      699.07701    
     61000  -79767.42       519.44889     -79247.971      191.17305      188.70085      699.34495    
     61100  -79718.678      515.99623     -79202.682      191.15349      188.684        699.6129     
     61200  -79674.265      515.61304     -79158.652      191.13763      188.67136      699.88085    
     61300  -79636.353      521.45572     -79114.897      191.11787      188.65547      700.1488     
     61400  -79588.192      518.08348     -79070.109      191.09647      188.63885      700.41675    
     61500  -79540.746      515.0324      -79025.713      191.07821      188.62579      700.6847     
     61600  -79499.56       517.00667     -78982.554      191.05931      188.61195      700.95264    
     61700  -79457.029      520.33458     -78936.694      191.03665      188.59616      701.22059    
     61800  -79407.146      516.11632     -78891.03       191.01682      188.58226      701.48854    
     61900  -79359.913      514.43312     -78845.48       190.99727      188.56902      701.75649    
     62000  -79315.616      515.12314     -78800.493      190.97472      188.55385      702.02444    
     62100  -79272.314      518.73179     -78753.582      190.95428      188.54047      702.29239    
     62200  -79228.809      520.36106     -78708.448      190.9337       188.52698      702.56033    
     62300  -79181.936      517.94486     -78663.991      190.91139      188.51204      702.82828    
     62400  -79139.881      522.13625     -78617.744      190.8906       188.49897      703.09623    
     62500  -79091.91       518.98134     -78572.929      190.87053      188.48633      703.36418    
     62600  -79044.709      517.64358     -78527.065      190.84784      188.47044      703.63213    
     62700  -78994.457      513.32689     -78481.13       190.82675      188.45733      703.90008    
     62800  -78947.974      512.54725     -78435.427      190.80691      188.44487      704.16802    
     62900  -78906.632      517.63296     -78388.999      190.78382      188.42857      704.43597    
     63000  -78860.579      517.7207      -78342.859      190.76329      188.41481      704.70392    
     63100  -78814.095      517.65453     -78296.44       190.74393      188.4025       704.97187    
     63200  -78763.202      514.655       -78248.547      190.72079      188.38571      705.23982    
     63300  -78717.958      517.16725     -78200.791      190.70033      188.3709       705.50776    
     63400  -78670.696      517.37081     -78153.325      190.6822       188.3588       705.77571    
     63500  -78623.799      518.324       -78105.475      190.66028      188.34189      706.04366    
     63600  -78574.076      516.11496     -78057.961      190.63902      188.32553      706.31161    
     63700  -78528.754      518.25434     -78010.5        190.6219       188.31263      706.57956    
     63800  -78480.038      515.66103     -77964.377      190.60152      188.29592      706.84751    
     63900  -78427.265      510.81503     -77916.45       190.581        188.27871      707.11545    
     64000  -78385.006      517.15591     -77867.85       190.56399      188.26444      707.3834     
     64100  -78336.659      516.82673     -77819.832      190.54488      188.24734      707.65135    
     64200  -78286.828      516.37914     -77770.449      190.52519      188.22915      707.9193     
     64300  -78240.489      518.27031     -77722.218      190.50933      188.21461      708.18725    
     64400  -78197.802      522.48811     -77675.314      190.49097      188.19704      708.4552     
     64500  -78139.76       513.49529     -77626.265      190.47175      188.17726      708.72314    
     64600  -78091.347      513.19825     -77578.149      190.45673      188.16149      708.99109    
     64700  -78046.296      518.06772     -77528.228      190.43937      188.14367      709.25904    
     64800  -77989.782      511.46856     -77478.313      190.42103      188.12343      709.52699    
     64900  -77950.28       521.84896     -77428.431      190.40637      188.10673      709.79494    
     65000  -77896.028      518.19914     -77377.828      190.3901       188.08804      710.06289    
     65100  -77846.656      518.85655     -77327.799      190.37229      188.06688      710.33083    
     65200  -77795.417      518.52448     -77276.893      190.35893      188.04969      710.59878    
     65300  -77745.19       518.32078     -77226.869      190.34364      188.0306       710.86673    
     65400  -77692.281      515.67403     -77176.607      190.32574      188.00864      711.13468    
     65500  -77643.483      516.68519     -77126.798      190.31235      187.98991      711.40263    
     65600  -77594.251      519.40171     -77074.85       190.29821      187.9705       711.67057    
     65700  -77545.187      521.60224     -77023.585      190.28139      187.94919      711.93852    
     65800  -77485.63       513.6878      -76971.942      190.26832      187.93025      712.20647    
     65900  -77442.235      521.50875     -76920.726      190.25382      187.90917      712.47442    
     66000  -77384.642      516.30383     -76868.338      190.23764      187.8877       712.74237    
     66100  -77336.098      518.85436     -76817.244      190.22535      187.8699       713.01032    
     66200  -77285.053      519.29857     -76765.755      190.21172      187.84933      713.27826    
     66300  -77229.167      516.2566      -76712.91       190.19595      187.82751      713.54621    
     66400  -77177.666      516.43602     -76661.23       190.18275      187.8088       713.81416    
     66500  -77127.384      517.59872     -76609.785      190.16862      187.78804      714.08211    
     66600  -77072.2        515.10783     -76557.092      190.15459      187.76703      714.35006    
     66700  -77021.171      518.68735     -76502.483      190.14112      187.74844      714.61801    
     66800  -76966.152      517.4362      -76448.715      190.12716      187.72889      714.88595    
     66900  -76912.087      518.09731     -76393.99       190.11268      187.7076       715.1539     
     67000  -76854.627      515.2756      -76339.352      190.09917      187.68894      715.42185    
     67100  -76806.277      520.41785     -76285.859      190.08623      187.67124      715.6898     
     67200  -76747.491      516.85322     -76230.638      190.07083      187.6502       715.95775    
     67300  -76695.798      520.05358     -76175.744      190.05691      187.63133      716.22569    
     67400  -76646.396      523.91995     -76122.476      190.04399      187.61472      716.49364    
     67500  -76585.299      518.21119     -76067.088      190.02926      187.59547      716.76159    
     67600  -76529.484      517.80372     -76011.68       190.01535      187.57688      717.02954    
     67700  -76475.299      518.93516     -75956.364      190.00146      187.56045      717.29749    
     67800  -76417.052      516.66768     -75900.385      189.9863       187.54255      717.56544    
     67900  -76362.4        518.18424     -75844.216      189.97211      187.52473      717.83338    
     68000  -76305.156      518.05114     -75787.105      189.95817      187.50888      718.10133    
     68100  -76248.123      518.234       -75729.889      189.94264      187.49249      718.36928    
     68200  -76195.421      520.28426     -75675.137      189.92791      187.47588      718.63723    
     68300  -76142.445      525.18728     -75617.257      189.91329      187.45979      718.90518    
     68400  -76075.453      516.67762     -75558.775      189.89752      187.44479      719.17313    
     68500  -76019.152      516.93744     -75502.214      189.8828       187.43031      719.44107    
     68600  -75969.346      525.57723     -75443.769      189.8675       187.41469      719.70902    
     68700  -75905.526      519.29851     -75386.227      189.8512       187.39992      719.97697    
     68800  -75852.437      525.62108     -75326.816      189.83589      187.38736      720.24492    
     68900  -75786.471      518.18879     -75268.282      189.82047      187.37332      720.51287    
     69000  -75729.733      521.21039     -75208.522      189.80382      187.3587       720.78082    
     69100  -75669.638      522.09573     -75147.542      189.78852      187.34728      721.04876    
     69200  -75606.207      518.45593     -75087.751      189.77254      187.3348       721.31671    
     69300  -75549.238      520.1498      -75029.088      189.75511      187.3201       721.58466    
     69400  -75488.638      518.93023     -74969.708      189.7396       187.30909      721.85261    
     69500  -75437.885      529.18768     -74908.698      189.72389      187.29821      722.12056    
     69600  -75367.372      518.65014     -74848.721      189.70649      187.28501      722.3885     
     69700  -75307.649      517.72287     -74789.926      189.69085      187.27377      722.65645    
     69800  -75249.278      519.73278     -74729.545      189.67541      187.26414      722.9244     
     69900  -75195.445      526.25329     -74669.192      189.65816      187.25241      723.19235    
     70000  -75130.483      523.32988     -74607.153      189.64186      187.24053      723.4603     
     70100  -75068.88       521.49353     -74547.386      189.62749      187.2319       723.72825    
     70200  -75009.829      525.98092     -74483.848      189.61057      187.22121      723.99619    
     70300  -74947.49       525.5433      -74421.946      189.59371      187.20921      724.26414    
     70400  -74885.682      525.56363     -74360.118      189.58003      187.20084      724.53209    
     70500  -74823.023      525.51558     -74297.508      189.56451      187.19115      724.80004    
     70600  -74752.222      519.19641     -74233.025      189.54805      187.17975      725.06799    
     70700  -74696.533      527.00353     -74169.529      189.53432      187.17081      725.33594    
     70800  -74637.486      531.75267     -74105.733      189.52001      187.16189      725.60388    
     70900  -74564.926      525.90915     -74039.017      189.50456      187.15108      725.87183    
     71000  -74506.099      531.38956     -73974.709      189.49043      187.14128      726.13978    
     71100  -74437.25       528.25816     -73908.992      189.47727      187.13269      726.40773    
     71200  -74377.373      531.40831     -73845.965      189.46289      187.12268      726.67568    
     71300  -74307.258      526.98807     -73780.269      189.4493       187.11273      726.94363    
     71400  -74248.519      530.9824      -73717.537      189.43676      187.10383      727.21157    
     71500  -74175.925      523.77041     -73652.154      189.42327      187.09423      727.47952    
     71600  -74112.514      529.06794     -73583.446      189.41027      187.08396      727.74747    
     71700  -74053.547      532.88496     -73520.662      189.39854      187.075        728.01542    
     71800  -73988.009      534.67477     -73453.334      189.38597      187.06502      728.28337    
     71900  -73915.277      528.37405     -73386.903      189.37371      187.05504      728.55131    
     72000  -73853.789      531.91444     -73321.874      189.36283      187.04586      728.81926    
     72100  -73783.164      530.93022     -73252.234      189.35165      187.03635      729.08721    
     72200  -73713.72       528.8968      -73184.823      189.33972      187.02597      729.35516    
     72300  -73645.615      528.21396     -73117.401      189.32918      187.01631      729.62311    
     72400  -73581.372      534.04161     -73047.331      189.31903      187.00659      729.89106    
     72500  -73514.056      535.05809     -72978.998      189.3078       186.99605      730.159      
     72600  -73445.099      538.23905     -72906.86       189.29782      186.98631      730.42695    
[...]
     81600  -96372.051      570.66267     -95801.388      189.80664      187.722        754.5423     
     81700  -96520.378      547.41268     -95972.965      189.83233      187.76179      754.81024    
     81800  -96643.333      528.28209     -96115.051      189.85846      187.80243      755.07819    
     81900  -96740.147      512.5909      -96227.557      189.88548      187.84423      755.34614    
     82000  -96809.075      500.14703     -96308.928      189.91281      187.88646      755.61409    
     82100  -96849.625      494.3252      -96355.3        189.94136      187.92998      755.88204    
     82200  -96864.036      498.78304     -96365.253      189.96897      187.97236      756.14999    
     82300  -96853.118      505.98781     -96347.131      189.99546      188.01308      756.41793    
     82400  -96811.54       499.1656      -96312.374      190.0195       188.05094      756.68588    
     82500  -96734.909      481.74088     -96253.168      190.04066      188.08502      756.95383    
     82600  -96620.409      464.3351      -96156.074      190.06307      188.11927      757.22178    
     82700  -96465.789      436.57215     -96029.217      190.08346      188.15071      757.48973    
     82800  -96291.191      404.55097     -95886.64       190.10318      188.18096      757.75768    
     82900  -96179.027      446.40546     -95732.622      190.12295      188.21019      758.02562    
     83000  -96120.969      533.48875     -95587.481      190.12091      188.21706      758.29357    
     83100  -96131.892      606.81352     -95525.079      190.11253      188.22101      758.56152    
     83200  -96162.629      534.2564      -95628.373      190.11144      188.23143      758.82947    
     83300  -96173.99       455.52011     -95718.47       190.11792      188.24729      759.09742    
     83400  -96169.936      469.26996     -95700.666      190.12996      188.26947      759.36536    
     83500  -96131.143      522.63886     -95608.504      190.14808      188.28864      759.63331    
     83600  -96131.411      583.909       -95547.502      190.17631      188.31969      759.90126    
     83700  -96159.829      555.25866     -95604.57       190.20534      188.35724      760.16921    
     83800  -96217.391      506.59532     -95710.796      190.23703      188.38849      760.43716    
     83900  -96236.96       467.85716     -95769.102      190.27031      188.41546      760.70511    
     84000  -96220.057      482.32866     -95737.728      190.30406      188.44533      760.97305    
     84100  -96169.307      521.25086     -95648.056      190.33156      188.47281      761.241      
     84200  -96150.415      564.82941     -95585.586      190.35881      188.50468      761.50895    
     84300  -96161.826      544.9393      -95616.887      190.39336      188.54019      761.7769     
     84400  -96207.194      510.53734     -95696.657      190.41822      188.57161      762.04485    
     84500  -96207.02       464.02919     -95742.991      190.44624      188.59806      762.3128     
     84600  -96200.487      490.30367     -95710.183      190.48092      188.62939      762.58074    
     84700  -96190.121      549.28869     -95640.832      190.50465      188.65393      762.84869    
     84800  -96169.323      543.09083     -95626.232      190.52762      188.67184      763.11664    
     84900  -96188.723      516.86986     -95671.854      190.56284      188.70144      763.38459    
     85000  -96223.795      501.65566     -95722.14       190.59985      188.74086      763.65254    
     85100  -96223.243      482.19088     -95741.052      190.6262       188.77602      763.92048    
     85200  -96219.762      507.46904     -95712.293      190.64823      188.80446      764.18843    
     85300  -96207.403      536.1862      -95671.217      190.67377      188.83339      764.45638    
     85400  -96201.178      533.67077     -95667.507      190.6991       188.86138      764.72433    
     85500  -96217.118      511.3099      -95705.808      190.72586      188.89298      764.99228    
     85600  -96244.429      498.98894     -95745.44       190.74698      188.92363      765.26023    
     85700  -96254.525      497.55285     -95756.972      190.76142      188.95057      765.52817    
     85800  -96243.121      511.29792     -95731.823      190.78329      188.99094      765.79612    
     85900  -96216.12       519.53515     -95696.584      190.80072      189.03068      766.06407    
     86000  -96215.575      531.86194     -95683.713      190.81019      189.06063      766.33202    
     86100  -96231.803      524.25946     -95707.543      190.81774      189.09807      766.59997    
     86200  -96243.587      503.64712     -95739.94       190.82055      189.132        766.86792    
     86300  -96234.787      485.93207     -95748.855      190.82354      189.16599      767.13586    
     86400  -96240.902      514.57627     -95726.326      190.83354      189.19952      767.40381    
     86500  -96224.655      523.10225     -95701.553      190.83651      189.22686      767.67176    
     86600  -96223.371      524.27505     -95699.096      190.83626      189.25316      767.93971    
     86700  -96240.987      516.63441     -95724.353      190.8393       189.27291      768.20766    
     86800  -96241.998      491.82157     -95750.176      190.83433      189.28445      768.47561    
     86900  -96236.511      498.61406     -95737.897      190.82587      189.30132      768.74355    
     87000  -96229.506      529.47256     -95700.033      190.82198      189.3254       769.0115     
     87100  -96213.726      529.20171     -95684.525      190.8131       189.34185      769.27945    
     87200  -96231.826      525.74939     -95706.077      190.80633      189.3586       769.5474     
     87300  -96245.577      502.42202     -95743.155      190.79466      189.37986      769.81535    
     87400  -96255.668      496.33229     -95759.335      190.77665      189.39382      770.08329    
     87500  -96252.335      506.58434     -95745.751      190.76772      189.40669      770.35124    
     87600  -96245.985      526.1446      -95719.84       190.76338      189.41821      770.61919    
     87700  -96242.755      532.61709     -95710.138      190.75745      189.42783      770.88714    
     87800  -96258.663      523.22052     -95735.442      190.75734      189.44094      771.15509    
     87900  -96277.739      504.4446      -95773.294      190.75935      189.44355      771.42304    
     88000  -96283.847      494.52787     -95789.319      190.76445      189.44507      771.69098    
     88100  -96283.61       509.78452     -95773.825      190.77259      189.44577      771.95893    
     88200  -96279.48       525.86955     -95753.61       190.77902      189.44145      772.22688    
     88300  -96277.267      521.84323     -95755.424      190.78658      189.43747      772.49483    
     88400  -96296.551      518.29529     -95778.256      190.7982       189.43409      772.76278    
     88500  -96310.294      505.25107     -95805.043      190.80918      189.42311      773.03073    
     88600  -96316.754      500.10733     -95816.646      190.82125      189.41263      773.29867    
     88700  -96318.984      513.09654     -95805.888      190.83275      189.40298      773.56662    
     88800  -96310.467      521.71784     -95788.749      190.84398      189.39348      773.83457    
     88900  -96310.623      524.92448     -95785.698      190.85323      189.38906      774.10252    
     89000  -96317.955      513.87608     -95804.079      190.85822      189.37906      774.37047    
     89100  -96336.568      507.65637     -95828.911      190.86727      189.36741      774.63842    
     89200  -96349.455      506.7054      -95842.749      190.87527      189.35557      774.90636    
     89300  -96356.12       513.99367     -95842.127      190.88096      189.34604      775.17431    
     89400  -96354.551      516.40489     -95838.146      190.89124      189.33376      775.44226    
     89500  -96356.696      518.66088     -95838.035      190.90166      189.31728      775.71021    
     89600  -96356.784      515.64144     -95841.143      190.91281      189.30433      775.97816    
     89700  -96358.144      511.33564     -95846.808      190.92461      189.29131      776.2461     
     89800  -96362.208      509.87775     -95852.33       190.93416      189.27598      776.51405    
     89900  -96367.967      511.73164     -95856.236      190.94034      189.26424      776.782      
     90000  -96370.777      510.51055     -95860.267      190.94458      189.25198      777.04995    
     90100  -96374.285      508.13931     -95866.145      190.95043      189.24069      777.3179     
     90200  -96384.607      514.73831     -95869.869      190.95524      189.22923      777.58585    
     90300  -96386.548      514.84451     -95871.704      190.96181      189.21618      777.85379    
     90400  -96384.977      511.98285     -95872.995      190.96473      189.20254      778.12174    
     90500  -96387.293      512.31722     -95874.976      190.96537      189.19366      778.38969    
     90600  -96392.287      515.94848     -95876.339      190.96528      189.18427      778.65764    
     90700  -96395.239      517.23282     -95878.006      190.96435      189.17249      778.92559    
     90800  -96393.794      514.12643     -95879.667      190.95909      189.16357      779.19354    
     90900  -96400.288      515.02482     -95885.263      190.94829      189.15951      779.46148    
     91000  -96407.145      513.75787     -95893.387      190.93064      189.15702      779.72943    
     91100  -96412.94       513.14734     -95899.792      190.91231      189.15693      779.99738    
     91200  -96413.996      508.85602     -95905.14       190.89704      189.16019      780.26533    
     91300  -96421.027      513.93389     -95907.093      190.87135      189.1584       780.53328    
     91400  -96418.865      512.4472      -95906.418      190.84474      189.15695      780.80123    
     91500  -96416.126      516.63877     -95899.487      190.82183      189.15609      781.06917    
     91600  -96412.703      517.76248     -95894.94       190.79367      189.15172      781.33712    
     91700  -96415.869      518.94402     -95896.925      190.7663       189.15153      781.60507    
     91800  -96421.774      516.99183     -95904.782      190.74397      189.15395      781.87302    
     91900  -96426.451      513.69916     -95912.752      190.71978      189.15086      782.14097    
     92000  -96428.587      511.32851     -95917.258      190.70004      189.15136      782.40891    
     92100  -96431.808      515.42581     -95916.383      190.67981      189.14413      782.67686    
     92200  -96426.51       514.05098     -95912.459      190.65951      189.13157      782.94481    
     92300  -96420.599      510.89803     -95909.701      190.64535      189.11946      783.21276    
     92400  -96420.954      514.99828     -95905.956      190.63276      189.10382      783.48071    
     92500  -96426.726      519.1624      -95907.564      190.62049      189.08982      783.74866    
     92600  -96435.568      517.50743     -95918.06       190.6071       189.07928      784.0166     
     92700  -96435.23       509.74952     -95925.481      190.59298      189.06732      784.28455    
     92800  -96432.673      508.3677      -95924.306      190.58411      189.06004      784.5525     
     92900  -96442.201      521.41183     -95920.789      190.57526      189.05158      784.82045    
     93000  -96435.6        510.99508     -95924.605      190.56749      189.03691      785.0884     
     93100  -96438.602      507.98282     -95930.619      190.56296      189.0266       785.35635    
     93200  -96437.734      511.50673     -95926.228      190.55916      189.02102      785.62429    
     93300  -96436.966      519.33118     -95917.635      190.56017      189.01451      785.89224    
     93400  -96434.085      518.26743     -95915.818      190.56138      189.00333      786.16019    
     93500  -96435.816      511.57796     -95924.238      190.56865      188.99083      786.42814    
     93600  -96449.151      515.80669     -95933.344      190.58166      188.97937      786.69609    
     93700  -96445.504      511.67108     -95933.833      190.59491      188.96784      786.96404    
     93800  -96436.026      511.36786     -95924.658      190.60867      188.95449      787.23198    
     93900  -96427.901      516.83707     -95911.064      190.62322      188.93753      787.49993    
     94000  -96417.836      518.77847     -95899.058      190.63793      188.9204       787.76788    
     94100  -96413.871      520.75658     -95893.114      190.64922      188.90788      788.03583    
     94200  -96407.068      512.188       -95894.88       190.66206      188.89689      788.30378    
     94300  -96410.89       516.29158     -95894.598      190.6708       188.8842       788.57172    
     94400  -96406.804      514.00519     -95892.799      190.67665      188.87654      788.83967    
     94500  -96407.558      516.84156     -95890.717      190.68124      188.87405      789.10762    
     94600  -96396.23       511.55833     -95884.672      190.67522      188.86989      789.37557    
     94700  -96391.461      515.43488     -95876.026      190.66806      188.8732       789.64352    
     94800  -96384.686      518.77047     -95865.916      190.65542      188.87303      789.91147    
     94900  -96374.933      516.34068     -95858.593      190.64101      188.87158      790.17941    
     95000  -96375.042      516.35347     -95858.688      190.63234      188.88041      790.44736    
     95100  -96381.275      516.15963     -95865.116      190.61287      188.88188      790.71531    
     95200  -96384.775      512.93936     -95871.835      190.59775      188.8839       790.98326    
     95300  -96383.416      509.96209     -95873.454      190.58376      188.89017      791.25121    
     95400  -96379.754      514.27838     -95865.476      190.56301      188.89323      791.51916    
     95500  -96378.37       524.38592     -95853.984      190.54083      188.89684      791.7871     
     95600  -96370.404      522.06328     -95848.341      190.51812      188.90214      792.05505    
     95700  -96364.676      513.26195     -95851.414      190.48952      188.90391      792.323      
     95800  -96372.726      514.13691     -95858.59       190.46322      188.9085       792.59095    
     95900  -96371.804      507.017       -95864.787      190.43928      188.91554      792.8589     
     96000  -96368.494      504.65176     -95863.842      190.41069      188.92152      793.12685    
     96100  -96372.237      519.97062     -95852.267      190.38082      188.92992      793.39479    
     96200  -96372.56       524.79662     -95847.764      190.35185      188.94516      793.66274    
     96300  -96383.791      521.2621      -95862.529      190.31625      188.95678      793.93069    
     96400  -96400.157      510.71416     -95889.443      190.28267      188.96991      794.19864    
     96500  -96405.715      498.16963     -95907.546      190.2513       188.98481      794.46659    
     96600  -96415.582      510.76123     -95904.82       190.221        188.98985      794.73453    
     96700  -96403.331      513.24556     -95890.085      190.19546      189.00097      795.00248    
     96800  -96398.679      522.41721     -95876.262      190.17193      189.0119       795.27043    
     96900  -96400.613      522.09364     -95878.52       190.15055      189.01692      795.53838    
     97000  -96415.798      518.33507     -95897.463      190.13365      189.02222      795.80633    
     97100  -96420.727      504.99651     -95915.73       190.12159      189.01561      796.07428    
     97200  -96422.134      505.2329      -95916.901      190.11555      189.01118      796.34222    
     97300  -96412.791      513.8603      -95898.93       190.11139      189.00756      796.61017    
     97400  -96399.008      519.82967     -95879.178      190.10983      188.9942       796.87812    
     97500  -96395.809      521.3733      -95874.436      190.11237      188.98289      797.14607    
     97600  -96403.006      515.80187     -95887.204      190.11398      188.96929      797.41402    
     97700  -96409.453      507.10344     -95902.35       190.1206       188.95105      797.68197    
     97800  -96411.327      506.76341     -95904.563      190.13505      188.93625      797.94991    
     97900  -96400.958      508.17671     -95892.781      190.14486      188.91475      798.21786    
     98000  -96396.613      521.1927      -95875.42       190.15511      188.88977      798.48581    
     98100  -96392.595      524.71765     -95867.877      190.17174      188.87152      798.75376    
     98200  -96396.333      520.3076      -95876.025      190.18406      188.84538      799.02171    
     98300  -96403.699      513.97415     -95889.725      190.2001       188.82313      799.28966    
     98400  -96401.588      505.95918     -95895.629      190.22026      188.80479      799.5576     
     98500  -96404.87       513.93926     -95890.931      190.23041      188.77867      799.82555    
     98600  -96401.557      519.34748     -95882.21       190.24222      188.75451      800.0935     
     98700  -96402.496      520.95756     -95881.539      190.25504      188.73024      800.36145    
     98800  -96409.5        514.3729      -95895.128      190.26381      188.70351      800.6294     
     98900  -96421.458      510.384       -95911.074      190.27428      188.67796      800.89734    
     99000  -96424.937      510.50029     -95914.437      190.28551      188.65178      801.16529    
     99100  -96420.001      515.0225      -95904.978      190.29452      188.62227      801.43324    
     99200  -96410.885      519.50255     -95891.383      190.30236      188.59362      801.70119    
     99300  -96395.953      512.0694      -95883.883      190.31066      188.5656       801.96914    
     99400  -96402.923      516.57719     -95886.346      190.31598      188.53433      802.23709    
     99500  -96411.084      514.88853     -95896.196      190.3198       188.50421      802.50503    
     99600  -96413.646      508.2023      -95905.444      190.31965      188.47653      802.77298    
     99700  -96417.359      510.19191     -95907.167      190.31696      188.45369      803.04093    
     99800  -96416.403      517.03064     -95899.373      190.31092      188.43228      803.30888    
     99900  -96406.054      512.41634     -95893.638      190.29861      188.40999      803.57683    
    100000  -96412.024      517.4552      -95894.569      190.28314      188.39323      803.84478    
Loop time of 26871.2 on 16 procs for 100000 steps with 13260 atoms

Performance: 0.322 ns/day, 74.642 hours/ns, 3.721 timesteps/s, 49.346 katom-step/s
45.8% CPU use with 16 MPI tasks x 1 OpenMP threads

MPI task timing breakdown:
Section |  min time  |  avg time  |  max time  |%varavg| %total
---------------------------------------------------------------
Pair    | 2141.6     | 2444.5     | 2844.7     | 412.9 |  9.10
Neigh   | 11.482     | 16.236     | 22.935     |  92.8 |  0.06
Comm    | 3490.2     | 3919.2     | 4310.4     | 333.4 | 14.59
Output  | 78.387     | 81.14      | 85.126     |  21.0 |  0.30
Modify  | 17795      | 18095      | 18388      | 142.6 | 67.34
Other   |            | 2315       |            |       |  8.62

Nlocal:         828.75 ave        1316 max         389 min
Histogram: 4 0 2 1 2 0 3 0 1 3
Nghost:           2949 ave        4204 max        1914 min
Histogram: 4 0 4 0 1 2 1 0 0 4
Neighs:              0 ave           0 max           0 min
Histogram: 16 0 0 0 0 0 0 0 0 0

Total # of neighbors = 0
Ave neighs/atom = 0
Neighbor list builds = 662
Dangerous builds = 0
Total wall time: 7:27:58
