LAMMPS (2 Aug 2023 - Update 3)
OMP_NUM_THREADS environment is not set. Defaulting to 1 thread. (src/comm.cpp:98)
  using 1 OpenMP thread(s) per MPI task
Reading data file ...
  orthogonal box = (-100 -100 -2.1416495) to (100 100 39.081159)
  4 by 3 by 1 MPI processor grid
  reading atoms ...
  1620 atoms
  read_data CPU = 0.304 seconds
Replication is creating a 1x1x1 = 1 times larger system...
  orthogonal box = (-100 -100 -2.1416495) to (100 100 39.081159)
  4 by 3 by 1 MPI processor grid
  1620 atoms
  replicate CPU = 0.220 seconds
System init for write_data ...
WARNING: Communication cutoff is 0.0. No ghost atoms will be generated. Atoms may get lost. (src/comm_brick.cpp:210)
Reading airebo potential file CH.airebo with DATE: 2011-10-25
Reading airebo potential file CH.airebo with DATE: 2011-10-25
Reading airebo potential file CH.airebo with DATE: 2011-10-25
Neighbor list info ...
  update: every = 1 steps, delay = 0 steps, check = yes
  max neighbors/atom: 2000, page size: 100000
  master list distance cutoff = 13.2
  ghost atom cutoff = 13.2
  binsize = 6.6, bins = 31 31 7
  6 neighbor lists, perpetual/occasional/extra = 6 0 0
  (1) pair airebo, perpetual, skip from (5)
      attributes: full, newton on, ghost
      pair build: skip/ghost
      stencil: none
      bin: none
  (2) pair airebo, perpetual, skip from (5)
      attributes: full, newton on, ghost
      pair build: skip/ghost
      stencil: none
      bin: none
  (3) pair airebo, perpetual, skip from (5)
      attributes: full, newton on, ghost
      pair build: skip/ghost
      stencil: none
      bin: none
  (4) pair lj/cut, perpetual, skip from (6)
      attributes: half, newton on, cut 13
      pair build: skip
      stencil: none
      bin: none
  (5) neighbor class addition, perpetual
      attributes: full, newton on, ghost
      pair build: full/bin/ghost
      stencil: full/ghost/bin/3d
      bin: standard
  (6) neighbor class addition, perpetual
      attributes: half, newton on, cut 13
      pair build: half/bin/atomonly/newton
      stencil: half/bin/3d
      bin: standard
Setting up sd style minimization ...
  Unit style    : metal
  Current step  : 0
Per MPI rank memory allocation (min/avg/max) = 9.7 | 10.22 | 13.03 Mbytes
   Step          Temp          E_pair         E_mol          TotEng         Press     
         0   0             -10849.745      0             -10849.745      3997.0868    
        24   0             -11637.474      0             -11637.474      81.021641    
Loop time of 2.83532 on 12 procs for 24 steps with 1620 atoms

80.7% CPU use with 12 MPI tasks x 1 OpenMP threads

Minimization stats:
  Stopping criterion = energy tolerance
  Energy initial, next-to-last, final = 
     -10849.7454297727  -11636.5546977689   -11637.473763736
  Force two-norm initial, final = 835.27318 11.275528
  Force max component initial, final = 177.24911 2.7877205
  Final line search alpha, max atom move = 0.017949923 0.050039368
  Iterations, force evaluations = 24 43

MPI task timing breakdown:
Section |  min time  |  avg time  |  max time  |%varavg| %total
---------------------------------------------------------------
Pair    | 4.9754e-05 | 0.106      | 0.71487    |  73.4 |  3.74
Neigh   | 0          | 0          | 0          |   0.0 |  0.00
Comm    | 1.6862e-05 | 0.031404   | 0.25256    |  42.3 |  1.11
Output  | 0          | 0          | 0          |   0.0 |  0.00
Modify  | 0          | 0          | 0          |   0.0 |  0.00
Other   |            | 2.698      |            |       | 95.15

Nlocal:            135 ave         821 max           0 min
Histogram: 10 0 0 0 0 0 0 0 0 2
Nghost:        309.667 ave        1869 max           0 min
Histogram: 10 0 0 0 0 0 0 0 0 2
Neighs:              0 ave           0 max           0 min
Histogram: 12 0 0 0 0 0 0 0 0 0

Total # of neighbors = 0
Ave neighs/atom = 0
Neighbor list builds = 0
Dangerous builds = 0
Setting up Verlet run ...
  Unit style    : metal
  Current step  : 24
  Time step     : 0.001
Per MPI rank memory allocation (min/avg/max) = 10.33 | 10.85 | 13.65 Mbytes
   Step          Temp          E_pair         E_mol          TotEng         Press          Volume    
        24   300           -11637.474      0             -11574.692      121.68978      1648912.4    
Loop time of 0.0333287 on 12 procs for 0 steps with 1620 atoms

61.0% CPU use with 12 MPI tasks x 1 OpenMP threads

MPI task timing breakdown:
Section |  min time  |  avg time  |  max time  |%varavg| %total
---------------------------------------------------------------
Pair    | 0          | 0          | 0          |   0.0 |  0.00
Neigh   | 0          | 0          | 0          |   0.0 |  0.00
Comm    | 0          | 0          | 0          |   0.0 |  0.00
Output  | 0          | 0          | 0          |   0.0 |  0.00
Modify  | 0          | 0          | 0          |   0.0 |  0.00
Other   |            | 0.03333    |            |       |100.00

Nlocal:            135 ave         826 max           0 min
Histogram: 10 0 0 0 0 0 0 0 0 2
Nghost:        309.333 ave        1872 max           0 min
Histogram: 10 0 0 0 0 0 0 0 0 2
Neighs:              0 ave           0 max           0 min
Histogram: 12 0 0 0 0 0 0 0 0 0

Total # of neighbors = 0
Ave neighs/atom = 0
Neighbor list builds = 0
Dangerous builds = 0
WARNING: Dump 2 includes no atom IDs and is not sorted by ID. This may complicate post-processing tasks or visualization (src/dump.cpp:221)
Setting up Verlet run ...
  Unit style    : metal
  Current step  : 0
  Time step     : 0.001
Per MPI rank memory allocation (min/avg/max) = 11.83 | 12.35 | 15.15 Mbytes
   Step         PotEng         KinEng         TotEng           Lx             Ly             Lz      
         0  -11637.474      62.781652     -11574.692      200            200            41.222809    
       100  -11611.515      42.804006     -11568.711      199.98822      199.99264      41.24342     
       200  -11609.99       49.438798     -11560.551      199.9291       199.94209      41.264032    
       300  -11608.51       56.652532     -11551.858      200.021        200.04763      41.284643    
       400  -11604.344      60.698017     -11543.646      200.01518      200.07557      41.305255    
       500  -11599.771      60.196349     -11539.574      199.9144       200.02485      41.325866    
       600  -11602.752      66.386095     -11536.366      199.95119      200.11448      41.346477    
       700  -11602.323      66.161874     -11536.162      199.96463      200.17995      41.367089    
       800  -11603.18       64.125731     -11539.054      199.8984       200.14645      41.3877      
       900  -11600.974      60.596372     -11540.377      199.902        200.1969       41.408312    
      1000  -11601.774      63.288711     -11538.485      199.90443      200.22204      41.428923    
      1100  -11601.965      64.759282     -11537.206      199.9095       200.23438      41.449534    
      1200  -11600.29       61.451006     -11538.839      199.8853       200.23368      41.470146    
      1300  -11600.353      61.409808     -11538.943      199.89248      200.25999      41.490757    
      1400  -11598.958      62.193007     -11536.765      199.9201       200.29016      41.511369    
      1500  -11597.738      61.506037     -11536.232      199.89229      200.27072      41.53198     
      1600  -11599.274      62.15231      -11537.122      199.89734      200.30414      41.552591    
      1700  -11599.542      62.085669     -11537.457      199.88865      200.32285      41.573203    
      1800  -11599.071      61.820405     -11537.25       199.87678      200.34478      41.593814    
      1900  -11597.965      61.11593      -11536.849      199.86559      200.37825      41.614426    
      2000  -11596.371      60.644966     -11535.726      199.82988      200.3891       41.635037    
      2100  -11595.897      62.023729     -11533.874      199.83936      200.42128      41.655648    
      2200  -11594.821      61.557725     -11533.263      199.83718      200.44574      41.67626     
      2300  -11598.162      63.174857     -11534.987      199.8202       200.44705      41.696871    
      2400  -11597.942      61.011572     -11536.93       199.82618      200.46607      41.717483    
      2500  -11599.819      63.330427     -11536.488      199.82919      200.47877      41.738094    
      2600  -11600.183      64.7913       -11535.392      199.81236      200.49976      41.758706    
      2700  -11597.17       62.712801     -11534.457      199.80015      200.52357      41.779317    
      2800  -11598.309      63.234691     -11535.074      199.77314      200.56008      41.799928    
      2900  -11599.879      62.976411     -11536.903      199.757        200.59021      41.82054     
      3000  -11600.757      62.529257     -11538.228      199.73662      200.59457      41.841151    
      3100  -11598.311      60.354293     -11537.956      199.74129      200.60287      41.861763    
      3200  -11600.008      64.936979     -11535.071      199.7513       200.6023       41.882374    
      3300  -11598.594      66.17792      -11532.416      199.7564       200.58498      41.902985    
      3400  -11597.204      62.386478     -11534.818      199.7816       200.58072      41.923597    
      3500  -11597.801      61.805903     -11535.995      199.80293      200.59093      41.944208    
      3600  -11597.725      61.89829      -11535.826      199.80677      200.58822      41.96482     
      3700  -11596.75       62.132117     -11534.618      199.80096      200.59612      41.985431    
      3800  -11593.939      61.828601     -11532.11       199.8155       200.628        42.006042    
      3900  -11594.199      65.139982     -11529.059      199.79959      200.63913      42.026654    
      4000  -11593.455      63.913761     -11529.542      199.76791      200.63821      42.047265    
      4100  -11593.699      63.011418     -11530.688      199.75955      200.6642       42.067877    
      4200  -11593.933      62.736617     -11531.196      199.76017      200.69185      42.088488    
      4300  -11594.031      62.195949     -11531.835      199.75705      200.7104       42.109099    
      4400  -11592.497      60.31264      -11532.184      199.74926      200.70436      42.129711    
      4500  -11590.772      62.223464     -11528.549      199.7608       200.69879      42.150322    
      4600  -11590.971      64.850249     -11526.121      199.78691      200.69878      42.170934    
      4700  -11591.708      63.895582     -11527.812      199.78808      200.68943      42.191545    
      4800  -11590.41       61.739358     -11528.671      199.78045      200.68592      42.212156    
      4900  -11591.096      63.928742     -11527.167      199.7749       200.69537      42.232768    
      5000  -11588.869      63.826245     -11525.043      199.77035      200.71585      42.253379    
      5100  -11587.408      63.875768     -11523.532      199.7608       200.7425       42.273991    
      5200  -11588.669      63.126024     -11525.543      199.73035      200.75135      42.294602    
      5300  -11589.121      62.103249     -11527.018      199.73523      200.76449      42.315213    
      5400  -11588.138      61.348173     -11526.79       199.75103      200.77263      42.335825    
      5500  -11586.185      62.071083     -11524.114      199.75488      200.76789      42.356436    
      5600  -11585.134      64.38493      -11520.749      199.76329      200.75454      42.377048    
      5700  -11586.139      64.889552     -11521.249      199.77045      200.73775      42.397659    
      5800  -11584.115      61.259678     -11522.855      199.7796       200.72965      42.41827     
      5900  -11585.629      61.273219     -11524.356      199.78421      200.71723      42.438882    
      6000  -11585.612      60.957185     -11524.655      199.7925       200.70522      42.459493    
      6100  -11585.653      62.018342     -11523.635      199.8046       200.69811      42.480105    
      6200  -11585.071      63.158152     -11521.912      199.81368      200.69874      42.500716    
      6300  -11586.381      66.308225     -11520.073      199.81306      200.69592      42.521327    
      6400  -11584.957      62.624728     -11522.332      199.80945      200.70554      42.541939    
      6500  -11585.303      61.984418     -11523.319      199.79091      200.72011      42.56255     
      6600  -11584.98       61.700576     -11523.279      199.76072      200.73117      42.583162    
      6700  -11584.425      62.213565     -11522.211      199.74367      200.74575      42.603773    
      6800  -11584.156      62.615881     -11521.54       199.74478      200.75725      42.624385    
      6900  -11585.592      62.236965     -11523.355      199.74813      200.76486      42.644996    
      7000  -11584.31       61.832001     -11522.478      199.73681      200.76229      42.665607    
      7100  -11579.955      61.446791     -11518.508      199.73011      200.76139      42.686219    
      7200  -11579.591      63.244676     -11516.347      199.72466      200.75438      42.70683     
      7300  -11578.187      62.905925     -11515.281      199.72667      200.75306      42.727442    
      7400  -11577.952      62.489827     -11515.462      199.73746      200.75073      42.748053    
      7500  -11579.094      61.613365     -11517.48       199.74102      200.74179      42.768664    
      7600  -11578.061      61.136157     -11516.924      199.74044      200.73578      42.789276    
      7700  -11575.881      61.465357     -11514.416      199.73868      200.73896      42.809887    
      7800  -11575.676      63.447114     -11512.229      199.73449      200.74405      42.830499    
      7900  -11573.734      62.914389     -11510.82       199.71661      200.75095      42.85111     
      8000  -11572.223      63.140212     -11509.082      199.67619      200.75626      42.871721    
      8100  -11572.949      65.977254     -11506.971      199.6477       200.77399      42.892333    
      8200  -11570.086      64.438687     -11505.648      199.6383       200.80968      42.912944    
      8300  -11568.471      61.221882     -11507.249      199.61796      200.84428      42.933556    
      8400  -11569.394      62.272675     -11507.122      199.5778       200.87311      42.954167    
      8500  -11568.008      63.040122     -11504.968      199.54305      200.89607      42.974778    
      8600  -11564.917      64.201329     -11500.716      199.51836      200.90491      42.99539     
      8700  -11564.112      65.07608      -11499.036      199.52045      200.9182       43.016001    
      8800  -11563.495      63.653227     -11499.842      199.51342      200.92232      43.036613    
      8900  -11565.005      64.230495     -11500.774      199.4928       200.91076      43.057224    
      9000  -11563.55       62.378165     -11501.172      199.4803       200.89644      43.077835    
      9100  -11562.344      61.962799     -11500.381      199.48245      200.89067      43.098447    
      9200  -11560.069      62.046137     -11498.023      199.48142      200.8958       43.119058    
      9300  -11558.066      64.843922     -11493.222      199.46354      200.90303      43.13967     
      9400  -11556.866      63.734236     -11493.131      199.44002      200.90833      43.160281    
      9500  -11556.637      62.456188     -11494.181      199.41429      200.91935      43.180892    
      9600  -11556.814      61.678046     -11495.136      199.3921       200.93605      43.201504    
      9700  -11556.409      62.329449     -11494.08       199.36958      200.95673      43.222115    
      9800  -11553.088      61.401332     -11491.686      199.3426       200.97457      43.242727    
      9900  -11552.193      64.754786     -11487.438      199.30702      200.98632      43.263338    
     10000  -11551.323      64.144426     -11487.179      199.28036      200.99624      43.283949    
     10100  -11550.587      62.376752     -11488.21       199.26324      201.01454      43.304561    
     10200  -11549.787      61.168698     -11488.619      199.24426      201.02794      43.325172    
     10300  -11550.861      63.653381     -11487.208      199.21167      201.03453      43.345784    
     10400  -11547.494      62.598197     -11484.896      199.18083      201.04386      43.366395    
     10500  -11544.974      62.651795     -11482.322      199.15922      201.05978      43.387006    
     10600  -11543.724      64.785014     -11478.939      199.12445      201.07215      43.407618    
     10700  -11542.405      65.081837     -11477.324      199.09938      201.08905      43.428229    
     10800  -11542.453      62.995247     -11479.458      199.07548      201.10209      43.448841    
     10900  -11541.772      62.674738     -11479.098      199.04898      201.10787      43.469452    
     11000  -11542.887      64.831497     -11478.055      199.02463      201.10546      43.490063    
     11100  -11539.21       60.685928     -11478.524      199.00602      201.10989      43.510675    
     11200  -11539.743      60.762973     -11478.98       198.98688      201.11424      43.531286    
     11300  -11537.803      60.529912     -11477.273      198.96583      201.1161       43.551898    
     11400  -11535.323      62.265167     -11473.058      198.94175      201.11956      43.572509    
     11500  -11532.749      62.758486     -11469.99       198.90392      201.12441      43.593121    
     11600  -11533.22       64.603557     -11468.616      198.86822      201.13871      43.613732    
     11700  -11531.43       61.217086     -11470.213      198.82852      201.15158      43.634343    
     11800  -11532.294      61.822852     -11470.471      198.79527      201.16195      43.654955    
     11900  -11530.326      61.721197     -11468.605      198.77244      201.18113      43.675566    
     12000  -11528.407      62.993966     -11465.413      198.73085      201.19259      43.696178    
     12100  -11526.44       63.647475     -11462.793      198.68493      201.20533      43.716789    
     12200  -11525.628      64.035677     -11461.593      198.64722      201.21893      43.7374      
     12300  -11523.051      62.524087     -11460.526      198.61582      201.22993      43.758012    
     12400  -11521.911      62.124617     -11459.786      198.58576      201.23854      43.778623    
     12500  -11522.216      63.491096     -11458.725      198.55519      201.24018      43.799235    
     12600  -11520.5        63.524933     -11456.975      198.51558      201.23476      43.819846    
     12700  -11518.993      63.277237     -11455.716      198.47936      201.23415      43.840457    
     12800  -11519.16       64.203216     -11454.957      198.44766      201.23428      43.861069    
     12900  -11517.291      63.068709     -11454.222      198.41227      201.2407       43.88168     
     13000  -11514.378      61.085919     -11453.292      198.36537      201.24713      43.902292    
     13100  -11514.649      62.916484     -11451.732      198.32639      201.2612       43.922903    
     13200  -11510.103      61.342483     -11448.761      198.28358      201.27528      43.943514    
     13300  -11510.651      64.788529     -11445.862      198.2337       201.28439      43.964126    
     13400  -11508.405      63.316167     -11445.089      198.19561      201.29141      43.984737    
     13500  -11509.283      62.6815       -11446.601      198.14487      201.28974      44.005349    
     13600  -11507.836      61.519286     -11446.317      198.09652      201.2894       44.02596     
     13700  -11508.66       64.112656     -11444.548      198.06285      201.28973      44.046571    
     13800  -11505.073      62.422866     -11442.65       198.01867      201.28142      44.067183    
     13900  -11501.143      62.216646     -11438.926      197.98042      201.28476      44.087794    
     14000  -11500.194      65.070174     -11435.124      197.92409      201.29205      44.108406    
     14100  -11496.452      61.583539     -11434.869      197.85048      201.29617      44.129017    
     14200  -11497.644      61.595169     -11436.049      197.78893      201.30302      44.149628    
     14300  -11496.357      61.113541     -11435.244      197.73657      201.30847      44.17024     
     14400  -11494.738      61.369642     -11433.368      197.68976      201.31442      44.190851    
     14500  -11495.082      64.140314     -11430.941      197.6348       201.32177      44.211463    
     14600  -11490.669      63.923369     -11426.746      197.57289      201.33068      44.232074    
     14700  -11491.264      66.951272     -11424.312      197.49953      201.34181      44.252685    
     14800  -11489.939      63.669307     -11426.269      197.41871      201.35123      44.273297    
     14900  -11489.24       62.927549     -11426.312      197.34708      201.35565      44.293908    
     15000  -11488.545      62.817793     -11425.727      197.28741      201.35288      44.31452     
     15100  -11488.996      63.459355     -11425.537      197.23202      201.34285      44.335131    
     15200  -11488.011      61.723102     -11426.287      197.18795      201.33512      44.355742    
     15300  -11486.233      60.844327     -11425.389      197.12932      201.325        44.376354    
     15400  -11484.543      64.368463     -11420.175      197.05055      201.31834      44.396965    
     15500  -11481.571      63.792774     -11417.778      196.96088      201.32313      44.417577    
     15600  -11482.089      64.575922     -11417.513      196.85278      201.32803      44.438188    
     15700  -11478.988      61.310989     -11417.677      196.76472      201.34794      44.4588      
     15800  -11476.633      60.922073     -11415.711      196.67496      201.36993      44.479411    
     15900  -11475.391      64.522876     -11410.868      196.59381      201.39528      44.500022    
     16000  -11471.506      62.762854     -11408.743      196.53095      201.42188      44.520634    
     16100  -11473.323      64.712737     -11408.61       196.44233      201.43815      44.541245    
     16200  -11469.454      61.732017     -11407.722      196.3496       201.4647       44.561857    
     16300  -11468.136      61.897733     -11406.238      196.24947      201.49808      44.582468    
     16400  -11467.726      63.01887      -11404.707      196.13151      201.52112      44.603079    
     16500  -11465.216      63.228436     -11401.987      196.02058      201.53764      44.623691    
     16600  -11461.4        63.816563     -11397.584      195.92098      201.54427      44.644302    
     16700  -11459.328      62.767368     -11396.56       195.82549      201.53721      44.664914    
     16800  -11460.686      63.1082       -11397.578      195.7513       201.52819      44.685525    
     16900  -11459.876      63.360708     -11396.516      195.67731      201.5179       44.706136    
     17000  -11458.443      62.953875     -11395.489      195.59003      201.51104      44.726748    
     17100  -11456.608      61.586881     -11395.021      195.49311      201.51727      44.747359    
     17200  -11454.914      61.232359     -11393.682      195.37192      201.52594      44.767971    
     17300  -11454.468      63.923248     -11390.545      195.25168      201.54606      44.788582    
     17400  -11448.532      62.377436     -11386.154      195.13164      201.56835      44.809193    
     17500  -11448.282      64.278002     -11384.004      195.01965      201.58634      44.829805    
     17600  -11446.394      62.054058     -11384.34       194.92398      201.60397      44.850416    
     17700  -11445.742      61.233686     -11384.508      194.82533      201.61563      44.871028    
     17800  -11443.102      60.794329     -11382.308      194.72504      201.62996      44.891639    
     17900  -11441.839      62.57243      -11379.266      194.61939      201.65325      44.91225     
     18000  -11439.978      63.657819     -11376.32       194.49294      201.6721       44.932862    
     18100  -11437.215      62.661053     -11374.554      194.37455      201.6911       44.953473    
     18200  -11437.967      63.538308     -11374.428      194.26162      201.70344      44.974085    
     18300  -11435.138      60.601729     -11374.536      194.13814      201.69966      44.994696    
     18400  -11433.655      62.126952     -11371.528      194.03411      201.70181      45.015307    
     18500  -11429.84       62.705201     -11367.135      193.92743      201.69812      45.035919    
     18600  -11430.025      64.619924     -11365.405      193.82035      201.69692      45.05653     
     18700  -11426.436      61.935433     -11364.501      193.71339      201.70659      45.077142    
     18800  -11425.881      62.507796     -11363.373      193.59014      201.7174       45.097753    
     18900  -11424.456      61.039988     -11363.416      193.47522      201.73882      45.118364    
     19000  -11423.798      61.161641     -11362.637      193.35823      201.7597       45.138976    
     19100  -11420.535      62.115534     -11358.419      193.23216      201.77605      45.159587    
     19200  -11418.701      64.392203     -11354.309      193.1096       201.79678      45.180199    
     19300  -11416.345      63.972367     -11352.372      192.98047      201.81082      45.20081     
     19400  -11413.406      61.498382     -11351.907      192.86087      201.8244       45.221421    
     19500  -11414.52       62.665176     -11351.855      192.75556      201.84321      45.242033    
     19600  -11410.715      61.168521     -11349.546      192.62991      201.84939      45.262644    
     19700  -11407.306      63.111721     -11344.194      192.51641      201.85583      45.283256    
     19800  -11406.293      64.756319     -11341.536      192.41358      201.86205      45.303867    
     19900  -11404.901      63.784104     -11341.117      192.28927      201.85483      45.324478    
     20000  -11403.433      61.944097     -11341.489      192.17867      201.86311      45.34509     
     20100  -11402.37       62.330064     -11340.04       192.05877      201.87079      45.365701    
     20200  -11397.875      60.687148     -11337.188      191.93249      201.87813      45.386313    
     20300  -11398.448      64.287053     -11334.161      191.81891      201.89288      45.406924    
     20400  -11393.458      61.916674     -11331.541      191.69382      201.90278      45.427536    
     20500  -11390.958      63.144388     -11327.813      191.57177      201.92055      45.448147    
     20600  -11389.229      64.230388     -11324.998      191.45725      201.9435       45.468758    
     20700  -11389.329      64.239789     -11325.089      191.33764      201.95689      45.48937     
     20800  -11387.971      62.577343     -11325.394      191.23215      201.97144      45.509981    
     20900  -11384.927      61.457217     -11323.469      191.12606      201.9828       45.530593    
     21000  -11381.818      63.122366     -11318.695      191.00945      201.98218      45.551204    
     21100  -11380.175      64.61399      -11315.561      190.90094      201.98659      45.571815    
     21200  -11378.651      64.052778     -11314.598      190.7838       201.98795      45.592427    
     21300  -11376.752      62.437454     -11314.314      190.6575       201.98633      45.613038    
     21400  -11375.17       61.809625     -11313.361      190.54567      201.99614      45.63365     
     21500  -11372.462      61.38131      -11311.081      190.42491      202.00185      45.654261    
     21600  -11369.654      61.348159     -11308.306      190.31316      202.01288      45.674872    
     21700  -11366.644      61.090673     -11305.553      190.21049      202.02387      45.695484    
     21800  -11367.683      65.000822     -11302.682      190.10675      202.02722      45.716095    
     21900  -11364.161      63.689269     -11300.471      190.01848      202.04111      45.736707    
     22000  -11361.505      63.394009     -11298.111      189.91365      202.05227      45.757318    
     22100  -11359.422      64.209129     -11295.213      189.80068      202.06553      45.777929    
     22200  -11355.162      61.890523     -11293.272      189.69316      202.08382      45.798541    
     22300  -11355.003      62.481634     -11292.521      189.57498      202.09289      45.819152    
     22400  -11354.334      62.432902     -11291.901      189.46251      202.09853      45.839764    
     22500  -11351.21       61.856069     -11289.354      189.35767      202.09731      45.860375    
     22600  -11348.937      64.721607     -11284.215      189.25982      202.09128      45.880986    
     22700  -11343.461      61.961769     -11281.499      189.16761      202.08745      45.901598    
     22800  -11343.398      62.449626     -11280.948      189.0708       202.08314      45.922209    
     22900  -11342.813      60.755787     -11282.057      188.97505      202.08597      45.942821    
     23000  -11342.079      62.002972     -11280.076      188.87454      202.09275      45.963432    
     23100  -11339.682      63.12976      -11276.552      188.76264      202.09612      45.984043    
     23200  -11335.121      62.256073     -11272.865      188.66789      202.11141      46.004655    
     23300  -11333.674      64.066361     -11269.607      188.56888      202.1162       46.025266    
     23400  -11330.586      63.499226     -11267.087      188.4764       202.11668      46.045878    
     23500  -11329.19       63.004624     -11266.186      188.399        202.12414      46.066489    
     23600  -11327.238      61.827518     -11265.411      188.30869      202.12083      46.0871      
     23700  -11324.348      61.918697     -11262.429      188.22477      202.12668      46.107712    
     23800  -11319.864      62.131843     -11257.732      188.13574      202.13428      46.128323    
     23900  -11318.967      64.506482     -11254.461      188.02683      202.13266      46.148935    
     24000  -11316.348      63.216366     -11253.132      187.92705      202.13912      46.169546    
     24100  -11318.304      63.430638     -11254.874      187.82441      202.13201      46.190157    
     24200  -11314.926      61.956595     -11252.969      187.73341      202.12064      46.210769    
     24300  -11311.342      62.517833     -11248.825      187.66171      202.11906      46.23138     
     24400  -11307.697      62.923373     -11244.774      187.57834      202.11113      46.251992    
     24500  -11305.213      63.039174     -11242.174      187.50283      202.11253      46.272603    
     24600  -11303.941      62.47183      -11241.469      187.43191      202.1225       46.293215    
     24700  -11303.155      60.998121     -11242.157      187.34625      202.12687      46.313826    
     24800  -11299.515      60.254164     -11239.26       187.26322      202.13651      46.334437    
     24900  -11296.846      62.07703      -11234.769      187.17063      202.13626      46.355049    
     25000  -11294.049      62.261359     -11231.787      187.07676      202.12468      46.37566     
     25100  -11292.969      63.385582     -11229.584      187.00292      202.12285      46.396272    
     25200  -11288.944      62.715083     -11226.229      186.92513      202.11569      46.416883    
     25300  -11288.504      67.122939     -11221.381      186.85918      202.11466      46.437494    
     25400  -11283.362      64.236573     -11219.125      186.80098      202.11999      46.458106    
     25500  -11282.63       62.010768     -11220.619      186.72488      202.11531      46.478717    
     25600  -11280.089      61.170377     -11218.919      186.65006      202.11426      46.499329    
     25700  -11277.482      61.660124     -11215.822      186.56813      202.10692      46.51994     
     25800  -11275.04       62.94463      -11212.095      186.47634      202.08974      46.540551    
     25900  -11272.669      65.065182     -11207.604      186.39655      202.08144      46.561163    
     26000  -11267.97       63.512702     -11204.457      186.31664      202.07117      46.581774    
     26100  -11269.426      64.414836     -11205.011      186.24738      202.07126      46.602386    
     26200  -11266.573      61.686322     -11204.887      186.18655      202.07894      46.622997    
     26300  -11263.403      60.924192     -11202.478      186.11928      202.08104      46.643608    
     26400  -11259.648      60.95249      -11198.696      186.05912      202.08679      46.66422     
     26500  -11258.103      64.291614     -11193.811      185.99497      202.08717      46.684831    
     26600  -11256.272      65.14514      -11191.127      185.91789      202.07658      46.705443    
     26700  -11255.033      62.935426     -11192.098      185.84443      202.07186      46.726054    
     26800  -11253.634      62.932698     -11190.701      185.76326      202.05743      46.746665    
     26900  -11248.754      61.016695     -11187.738      185.68233      202.04333      46.767277    
     27000  -11246.853      63.429813     -11183.423      185.6139       202.03829      46.787888    
     27100  -11243.56       64.143204     -11179.417      185.54398      202.02798      46.8085      
     27200  -11240.417      63.359577     -11177.057      185.48266      202.02226      46.829111    
     27300  -11240.166      61.651008     -11178.515      185.4288       202.02583      46.849722    
     27400  -11238.127      61.229985     -11176.897      185.36708      202.02671      46.870334    
     27500  -11235.443      62.561417     -11172.882      185.31568      202.03373      46.890945    
     27600  -11230.282      62.0206       -11168.262      185.25685      202.03212      46.911557    
     27700  -11228.619      63.43603      -11165.183      185.186        202.02212      46.932168    
     27800  -11226.834      63.302066     -11163.532      185.11986      202.01859      46.952779    
     27900  -11224.731      62.689431     -11162.041      185.04647      202.00958      46.973391    
     28000  -11224.02       64.11867      -11159.902      184.97603      202.00163      46.994002    
     28100  -11219.24       61.989897     -11157.25       184.91647      202.00274      47.014614    
     28200  -11216.746      62.563216     -11154.182      184.84594      201.99305      47.035225    
     28300  -11213.94       63.036787     -11150.903      184.7889       201.98946      47.055836    
     28400  -11211.034      62.988163     -11148.046      184.73721      201.9885       47.076448    
     28500  -11209.253      62.635452     -11146.617      184.67027      201.97696      47.097059    
     28600  -11207.546      61.483336     -11146.062      184.61622      201.97439      47.117671    
     28700  -11205.036      60.893874     -11144.143      184.56115      201.96818      47.138282    
     28800  -11202.039      62.903244     -11139.136      184.49789      201.95571      47.158893    
     28900  -11199.965      65.426884     -11134.538      184.44723      201.95825      47.179505    
     29000  -11195.931      62.958991     -11132.972      184.38249      201.95171      47.200116    
     29100  -11193.791      61.564981     -11132.226      184.31748      201.94621      47.220728    
     29200  -11194.043      62.927359     -11131.116      184.26354      201.94829      47.241339    
     29300  -11190.621      62.51984      -11128.101      184.19847      201.93867      47.261951    
     29400  -11187.541      62.909245     -11124.632      184.14618      201.93436      47.282562    
     29500  -11183.414      62.781505     -11120.632      184.09423      201.9306       47.303173    
     29600  -11180.781      63.649316     -11117.132      184.02782      201.91661      47.323785    
     29700  -11178.623      61.921057     -11116.702      183.9776       201.91482      47.344396    
     29800  -11177.803      60.932231     -11116.871      183.91981      201.90486      47.365008    
     29900  -11173.659      60.694385     -11112.964      183.85834      201.89216      47.385619    
     30000  -11172.216      63.975012     -11108.241      183.80541      201.8909       47.40623     
     30100  -11167.019      62.135585     -11104.884      183.73827      201.88109      47.426842    
     30200  -11166.159      63.974527     -11102.184      183.67865      201.87462      47.447453    
     30300  -11161.961      61.975079     -11099.986      183.63031      201.87456      47.468065    
     30400  -11161.816      62.723969     -11099.092      183.56847      201.86281      47.488676    
     30500  -11159.461      61.645864     -11097.815      183.51923      201.85842      47.509287    
     30600  -11156.23       62.530526     -11093.699      183.47102      201.85156      47.529899    
     30700  -11151.905      63.384798     -11088.52       183.41141      201.83922      47.55051     
     30800  -11148.826      63.144591     -11085.682      183.36071      201.83847      47.571122    
     30900  -11146.726      62.828305     -11083.897      183.30357      201.83285      47.591733    
     31000  -11144.849      61.099821     -11083.749      183.24346      201.82441      47.612344    
     31100  -11143.195      59.914348     -11083.281      183.19123      201.82073      47.632956    
     31200  -11140.637      61.294002     -11079.343      183.13452      201.80805      47.653567    
     31300  -11136.94       61.576457     -11075.364      183.08664      201.79855      47.674179    
     31400  -11133.255      61.990369     -11071.265      183.03899      201.78817      47.69479     
     31500  -11131.74       64.327159     -11067.413      182.98772      201.77683      47.715401    
     31600  -11128.601      64.391023     -11064.21       182.9392       201.77305      47.736013    
     31700  -11126.638      63.608038     -11063.03       182.88246      201.76593      47.756624    
     31800  -11123.809      60.972872     -11062.837      182.82677      201.76234      47.777236    
     31900  -11121.857      61.976142     -11059.881      182.77139      201.7589       47.797847    
     32000  -11116.973      62.277743     -11054.695      182.71081      201.7491       47.818458    
     32100  -11113.638      63.149912     -11050.488      182.65845      201.74305      47.83907     
     32200  -11112.064      63.628727     -11048.435      182.61229      201.73528      47.859681    
     32300  -11110.381      63.079719     -11047.302      182.56289      201.7201       47.880293    
     32400  -11108.61       63.254084     -11045.356      182.51879      201.71324      47.900904    
     32500  -11105.43       63.042589     -11042.388      182.46914      201.70626      47.921515    
     32600  -11101.728      64.141818     -11037.586      182.41596      201.69711      47.942127    
     32700  -11097.52       66.122084     -11031.397      182.36828      201.69523      47.962738    
     32800  -11095.525      64.564882     -11030.961      182.31468      201.69077      47.98335     
     32900  -11094.228      63.301283     -11030.926      182.25765      201.68203      48.003961    
     33000  -11092.26       63.02008      -11029.24       182.20599      201.67534      48.024572    
     33100  -11088.196      62.090652     -11026.105      182.1499       201.66206      48.045184    
     33200  -11084.551      63.458221     -11021.093      182.0971       201.64936      48.065795    
     33300  -11081.158      64.784648     -11016.374      182.04852      201.63861      48.086407    
     33400  -11080.078      64.795736     -11015.282      181.99661      201.62634      48.107018    
     33500  -11077.674      61.771847     -11015.903      181.94682      201.62038      48.12763     
     33600  -11074.904      62.021918     -11012.882      181.89493      201.61327      48.148241    
     33700  -11072.338      64.120055     -11008.218      181.84492      201.60742      48.168852    
     33800  -11068.229      64.071146     -11004.158      181.79548      201.603        48.189464    
     33900  -11065.74       63.780392     -11001.96       181.73947      201.59407      48.210075    
     34000  -11064.536      61.656494     -11002.879      181.68567      201.58669      48.230687    
     34100  -11061.188      60.801843     -11000.386      181.63362      201.57981      48.251298    
     34200  -11058.367      62.673605     -10995.693      181.57929      201.56779      48.271909    
     34300  -11054.726      63.595097     -10991.13       181.53171      201.56027      48.292521    
     34400  -11051.186      62.944474     -10988.242      181.48207      201.55064      48.313132    
     34500  -11050          63.721671     -10986.279      181.42974      201.53817      48.333744    
     34600  -11047.262      62.043739     -10985.219      181.38356      201.53108      48.354355    
     34700  -11045.347      59.919848     -10985.428      181.33184      201.51931      48.374966    
     34800  -11041.665      60.375101     -10981.29       181.27905      201.50824      48.395578    
     34900  -11038.165      62.090613     -10976.075      181.227        201.50023      48.416189    
     35000  -11033.375      61.245471     -10972.13       181.17077      201.48846      48.436801    
     35100  -11032.397      64.159206     -10968.237      181.12016      201.47635      48.457412    
     35200  -11029.786      64.739501     -10965.046      181.07588      201.46575      48.478023    
     35300  -11026.725      62.734695     -10963.99       181.02853      201.45151      48.498635    
     35400  -11023.247      59.796685     -10963.45       180.98631      201.44206      48.519246    
     35500  -11021.866      61.727031     -10960.139      180.94271      201.43192      48.539858    
     35600  -11018.838      64.493933     -10954.344      180.89355      201.41884      48.560469    
     35700  -11015.001      64.284884     -10950.717      180.8447       201.41044      48.58108     
     35800  -11012.4        63.864842     -10948.535      180.78879      201.3992       48.601692    
     35900  -11009.588      62.375768     -10947.212      180.73043      201.38541      48.622303    
     36000  -11006.163      60.074336     -10946.089      180.67656      201.37412      48.642915    
     36100  -11006.379      61.775146     -10944.604      180.62298      201.35933      48.663526    
     36200  -11003.045      62.713254     -10940.331      180.57508      201.34415      48.684137    
     36300  -10996.215      61.596194     -10934.619      180.5319       201.32919      48.704749    
     36400  -10994.564      63.570741     -10930.993      180.48644      201.31352      48.72536     
     36500  -10993.17       63.887483     -10929.283      180.44153      201.30416      48.745972    
     36600  -10990.355      61.197199     -10929.158      180.39527      201.29839      48.766583    
     36700  -10988.733      62.311253     -10926.422      180.34359      201.28964      48.787194    
     36800  -10984.094      62.620481     -10921.473      180.29059      201.28074      48.807806    
     36900  -10980.237      62.285602     -10917.951      180.23523      201.27009      48.828417    
     37000  -10978.136      62.811806     -10915.324      180.17778      201.25572      48.849029    
     37100  -10975.524      62.476365     -10913.048      180.12466      201.24229      48.86964     
     37200  -10971.991      61.602496     -10910.388      180.07356      201.22835      48.890251    
     37300  -10969.558      63.940807     -10905.617      180.02297      201.21188      48.910863    
     37400  -10964.772      63.828754     -10900.943      179.98017      201.20181      48.931474    
     37500  -10962.906      63.748075     -10899.158      179.93197      201.18867      48.952086    
     37600  -10961.005      61.154511     -10899.851      179.88053      201.17664      48.972697    
     37700  -10957.316      60.339351     -10896.977      179.83         201.17117      48.993308    
     37800  -10956.94       64.442625     -10892.497      179.77144      201.15814      49.01392     
     37900  -10951.553      63.644772     -10887.908      179.71537      201.14342      49.034531    
     38000  -10948.414      63.330758     -10885.083      179.66466      201.12983      49.055143    
     38100  -10946.407      61.747314     -10884.659      179.60948      201.10782      49.075754    
     38200  -10944.883      60.689423     -10884.193      179.56215      201.0918       49.096366    
     38300  -10940.584      60.827559     -10879.756      179.51486      201.07662      49.116977    
     38400  -10937.463      62.84001      -10874.623      179.46248      201.05953      49.137588    
     38500  -10933.917      62.937947     -10870.979      179.41617      201.05153      49.1582      
     38600  -10931.864      63.718452     -10868.146      179.365        201.04235      49.178811    
     38700  -10928.223      62.493919     -10865.729      179.30756      201.02871      49.199423    
     38800  -10925.757      61.006201     -10864.751      179.25641      201.02225      49.220034    
     38900  -10923.548      60.642393     -10862.906      179.20041      201.00784      49.240645    
     39000  -10920.873      62.924749     -10857.949      179.14504      200.98776      49.261257    
     39100  -10917.046      64.250646     -10852.795      179.09917      200.9723       49.281868    
     39200  -10914.289      64.300089     -10849.989      179.04601      200.94837      49.30248     
     39300  -10911.314      62.945605     -10848.369      178.99575      200.92884      49.323091    
     39400  -10907.984      60.390672     -10847.593      178.95134      200.91825      49.343702    
     39500  -10907.648      60.338224     -10847.309      178.89504      200.90255      49.364314    
     39600  -10904.894      60.872498     -10844.022      178.84335      200.89477      49.384925    
     39700  -10900.34       63.233074     -10837.107      178.7915       200.8862       49.405537    
     39800  -10896.34       63.735491     -10832.604      178.73013      200.86476      49.426148    
     39900  -10892.222      63.231824     -10828.99       178.67948      200.85181      49.446759    
     40000  -10890.982      64.171154     -10826.811      178.63138      200.83903      49.467371    
     40100  -10889.342      63.182245     -10826.16       178.57669      200.81415      49.487982    
     40200  -10886.899      62.607862     -10824.291      178.53232      200.7984       49.508594    
     40300  -10880.6        61.803745     -10818.796      178.48545      200.78026      49.529205    
     40400  -10877.281      63.815555     -10813.465      178.43032      200.75516      49.549816    
     40500  -10873.606      62.293801     -10811.312      178.38158      200.74259      49.570428    
     40600  -10873.682      63.309291     -10810.373      178.32435      200.72578      49.591039    
     40700  -10869.705      60.976045     -10808.729      178.26348      200.70553      49.611651    
     40800  -10868.672      63.484526     -10805.188      178.20756      200.68972      49.632262    
     40900  -10862.443      64.271985     -10798.171      178.14837      200.66641      49.652873    
     41000  -10860.205      64.877632     -10795.328      178.09422      200.64472      49.673485    
     41100  -10858.911      64.131619     -10794.779      178.04747      200.62701      49.694096    
     41200  -10853.807      60.77831      -10793.028      177.99678      200.60309      49.714708    
     41300  -10852.512      62.840203     -10789.671      177.95234      200.58551      49.735319    
     41400  -10848.186      63.454853     -10784.731      177.9078       200.57102      49.75593     
     41500  -10843.572      65.123837     -10778.448      177.85208      200.55121      49.776542    
     41600  -10840.531      64.326436     -10776.204      177.79959      200.54176      49.797153    
     41700  -10838.78       63.867445     -10774.913      177.74095      200.5281       49.817765    
     41800  -10834.248      60.376647     -10773.871      177.67528      200.50343      49.838376    
     41900  -10834.147      61.512974     -10772.634      177.62219      200.48454      49.858987    
     42000  -10830.783      61.433864     -10769.349      177.56364      200.4535       49.879599    
     42100  -10828.358      64.513544     -10763.844      177.50546      200.42022      49.90021     
     42200  -10823.104      63.768529     -10759.335      177.45855      200.39835      49.920822    
     42300  -10821.346      63.907849     -10757.438      177.40314      200.36942      49.941433    
     42400  -10820.522      62.24987      -10758.273      177.35163      200.35267      49.962045    
     42500  -10815.469      60.369225     -10755.1        177.30241      200.3444       49.982656    
     42600  -10812          62.049419     -10749.951      177.24228      200.32806      50.003267    
     42700  -10809.582      64.098141     -10745.484      177.19013      200.32064      50.023879    
     42800  -10806.331      64.061111     -10742.269      177.13572      200.30953      50.04449     
     42900  -10803.081      62.170779     -10740.91       177.0775       200.28908      50.065102    
     43000  -10800.35       59.912661     -10740.438      177.02692      200.26847      50.085713    
     43100  -10798.22       61.523437     -10736.697      176.96805      200.23757      50.106324    
     43200  -10794.363      62.772114     -10731.591      176.90732      200.20574      50.126936    
     43300  -10791.693      63.377733     -10728.315      176.85209      200.18048      50.147547    
     43400  -10789.467      64.077897     -10725.389      176.7857       200.14794      50.168159    
     43500  -10786.522      63.540469     -10722.982      176.71995      200.12528      50.18877     
     43600  -10782.709      61.291108     -10721.418      176.65815      200.11066      50.209381    
     43700  -10781.395      61.692941     -10719.702      176.59511      200.09033      50.229993    
     43800  -10776.809      61.668401     -10715.141      176.54465      200.07938      50.250604    
     43900  -10772.97       63.662647     -10709.307      176.49404      200.06617      50.271216    
     44000  -10769.676      63.785153     -10705.89       176.44077      200.0458       50.291827    
     44100  -10767.675      63.632175     -10704.043      176.395        200.03087      50.312438    
     44200  -10764.704      61.448793     -10703.256      176.34055      200.00964      50.33305     
     44300  -10762.78       60.372903     -10702.407      176.28007      199.98493      50.353661    
     44400  -10761.76       61.069297     -10700.691      176.22265      199.96452      50.374273    
     44500  -10754.168      59.733023     -10694.435      176.15673      199.93427      50.394884    
     44600  -10753.734      64.72796      -10689.006      176.0821       199.89965      50.415495    
     44700  -10747.427      62.517338     -10684.91       176.01544      199.87791      50.436107    
     44800  -10745.579      63.254454     -10682.325      175.94626      199.84853      50.456718    
     44900  -10744.974      63.550142     -10681.424      175.88341      199.82054      50.47733     
     45000  -10741.669      61.874181     -10679.795      175.83147      199.80052      50.497941    
     45100  -10737.645      62.167339     -10675.478      175.77497      199.77217      50.518552    
     45200  -10733.411      64.432402     -10668.979      175.72798      199.75481      50.539164    
     45300  -10729.759      63.525124     -10666.234      175.6832       199.74406      50.559775    
     45400  -10726.064      60.802193     -10665.261      175.62262      199.72278      50.580387    
     45500  -10727.118      63.740748     -10663.377      175.56521      199.71058      50.600998    
     45600  -10722.545      62.743882     -10659.801      175.50529      199.6918       50.621609    
     45700  -10717.398      64.926431     -10652.472      175.43572      199.65769      50.642221    
     45800  -10715.215      65.93993      -10649.275      175.37362      199.63183      50.662832    
     45900  -10710.965      62.198171     -10648.766      175.3084       199.6009       50.683444    
     46000  -10710.878      63.522288     -10647.356      175.23937      199.56119      50.704055    
     46100  -10705.882      61.328594     -10644.554      175.18285      199.53501      50.724666    
     46200  -10702.913      63.008803     -10639.904      175.12192      199.50424      50.745278    
     46300  -10699.476      65.765319     -10633.711      175.06109      199.47503      50.765889    
     46400  -10696.169      64.678816     -10631.49       175.01078      199.46118      50.786501    
     46500  -10694.032      63.632449     -10630.399      174.94939      199.43874      50.807112    
     46600  -10692.079      63.949366     -10628.13       174.88986      199.42155      50.827723    
     46700  -10686.562      61.307352     -10625.255      174.83364      199.40553      50.848335    
     46800  -10685.592      63.631189     -10621.961      174.76847      199.37205      50.868946    
     46900  -10681.11       63.621011     -10617.489      174.70943      199.34044      50.889558    
     47000  -10677.874      64.706237     -10613.168      174.65292      199.31076      50.910169    
     47100  -10673.443      62.151319     -10611.291      174.58427      199.26939      50.930781    
     47200  -10673.295      62.476163     -10610.819      174.5204       199.2389       50.951392    
     47300  -10670.752      62.55751      -10608.194      174.45814      199.2155       50.972003    
     47400  -10666.774      62.725942     -10604.048      174.38807      199.18522      50.992615    
     47500  -10663.999      64.893652     -10599.105      174.3256       199.16368      51.013226    
     47600  -10658.101      65.06939      -10593.031      174.26416      199.14216      51.033838    
     47700  -10653.451      65.966877     -10587.484      174.19701      199.11068      51.054449    
     47800  -10651.781      64.287847     -10587.493      174.13883      199.08815      51.07506     
     47900  -10650.117      63.12603      -10586.991      174.07822      199.0564       51.095672    
     48000  -10649.566      63.797335     -10585.768      174.018        199.01943      51.116283    
     48100  -10646.135      62.823522     -10583.311      173.96126      198.98833      51.136895    
     48200  -10642.965      63.859552     -10579.106      173.89829      198.95556      51.157506    
     48300  -10636.888      63.925942     -10572.962      173.83294      198.92612      51.178117    
     48400  -10632.164      62.351055     -10569.813      173.76609      198.90102      51.198729    
     48500  -10631.69       63.568445     -10568.122      173.69465      198.87079      51.21934     
     48600  -10628.651      62.736593     -10565.914      173.63316      198.84487      51.239952    
     48700  -10625.585      62.379305     -10563.206      173.57137      198.81464      51.260563    
     48800  -10622.642      62.445714     -10560.196      173.50514      198.77802      51.281174    
     48900  -10619.462      62.627816     -10556.835      173.44973      198.74932      51.301786    
     49000  -10617.984      64.046291     -10553.937      173.38893      198.71333      51.322397    
     49100  -10615.086      61.631959     -10553.454      173.32517      198.67751      51.343009    
     49200  -10611.389      60.377097     -10551.012      173.26742      198.65014      51.36362     
     49300  -10607.072      61.57331      -10545.498      173.2005       198.6151       51.384231    
     49400  -10602.919      62.585476     -10540.333      173.13464      198.5859       51.404843    
     49500  -10600.927      63.827153     -10537.1        173.07167      198.561        51.425454    
     49600  -10598.777      63.087963     -10535.689      173.00405      198.52695      51.446066    
     49700  -10596.373      61.163491     -10535.21       172.94351      198.50078      51.466677    
     49800  -10592.584      61.027912     -10531.556      172.88408      198.46983      51.487288    
     49900  -10588.271      61.316449     -10526.955      172.81934      198.42702      51.5079      
     50000  -10585.706      62.950274     -10522.755      172.76231      198.39489      51.528511    
     50100  -10582.056      63.359762     -10518.696      172.70116      198.36095      51.549123    
     50200  -10579.186      64.117364     -10515.069      172.63532      198.32138      51.569734    
     50300  -10576.086      63.140837     -10512.946      172.57806      198.29604      51.590345    
     50400  -10574.041      61.833996     -10512.207      172.51023      198.26278      51.610957    
     50500  -10571.606      61.861534     -10509.745      172.44439      198.22924      51.631568    
     50600  -10566.225      61.776728     -10504.448      172.3859       198.20194      51.65218     
     50700  -10563.046      64.361102     -10498.685      172.31881      198.16732      51.672791    
     50800  -10559.939      63.899247     -10496.04       172.25781      198.13657      51.693402    
     50900  -10557.32       63.138844     -10494.181      172.1991       198.10335      51.714014    
     51000  -10554.46       62.177065     -10492.283      172.13453      198.06058      51.734625    
     51100  -10551.756      62.006955     -10489.749      172.07867      198.02841      51.755237    
     51200  -10548.764      63.310145     -10485.454      172.02023      197.99515      51.775848    
     51300  -10543.339      64.486722     -10478.853      171.95495      197.95952      51.79646     
     51400  -10541.335      64.72494      -10476.61       171.89087      197.93213      51.817071    
     51500  -10537.749      61.458352     -10476.291      171.82586      197.90336      51.837682    
     51600  -10536.027      61.975796     -10474.051      171.75669      197.86787      51.858294    
     51700  -10534.51       63.791587     -10470.719      171.69428      197.83542      51.878905    
     51800  -10529.221      63.308182     -10465.913      171.63234      197.79935      51.899517    
     51900  -10525.406      65.221042     -10460.185      171.57011      197.761        51.920128    
     52000  -10520.484      62.653384     -10457.83       171.5092       197.72166      51.940739    
     52100  -10519.699      61.527304     -10458.172      171.44931      197.68296      51.961351    
     52200  -10519.158      63.766775     -10455.391      171.38876      197.64833      51.981962    
     52300  -10512.605      61.608074     -10450.997      171.32701      197.62069      52.002574    
     52400  -10510.094      63.809787     -10446.284      171.26352      197.59428      52.023185    
     52500  -10507.154      64.685055     -10442.469      171.19654      197.56336      52.043796    
     52600  -10505.277      63.124058     -10442.153      171.13189      197.53303      52.064408    
     52700  -10502.453      61.799951     -10440.653      171.0692       197.49448      52.085019    
     52800  -10499.689      63.342218     -10436.347      171.00682      197.44758      52.105631    
     52900  -10493.644      62.664874     -10430.979      170.95013      197.4086       52.126242    
     53000  -10489.654      62.709376     -10426.945      170.88732      197.36834      52.146853    
     53100  -10489.974      63.725398     -10426.249      170.82309      197.32947      52.167465    
     53200  -10486.89       61.324625     -10425.566      170.76392      197.30061      52.188076    
     53300  -10482.547      61.571665     -10420.976      170.69756      197.26733      52.208688    
     53400  -10479.01       63.779096     -10415.231      170.63439      197.23931      52.229299    
     53500  -10475.981      64.475507     -10411.506      170.57407      197.21377      52.24991     
     53600  -10472.525      62.499299     -10410.026      170.51081      197.183        52.270522    
     53700  -10471.014      61.909711     -10409.104      170.45139      197.15286      52.291133    
     53800  -10465.721      60.029593     -10405.691      170.39403      197.12032      52.311745    
     53900  -10462.228      60.882284     -10401.346      170.33392      197.07981      52.332356    
     54000  -10460.302      64.099391     -10396.203      170.27929      197.04473      52.352967    
     54100  -10457.025      64.785603     -10392.239      170.2202       197.0066       52.373579    
     54200  -10454.325      63.012035     -10391.313      170.15868      196.97202      52.39419     
     54300  -10451.201      60.749721     -10390.452      170.09949      196.94521      52.414802    
     54400  -10448.643      62.345175     -10386.298      170.0327       196.91035      52.435413    
     54500  -10444.208      63.015776     -10381.192      169.96922      196.8807       52.456024    
     54600  -10441.154      64.388672     -10376.766      169.90928      196.85398      52.476636    
     54700  -10437.873      62.792957     -10375.08       169.84536      196.81677      52.497247    
     54800  -10435.053      60.057775     -10374.995      169.78958      196.78878      52.517859    
     54900  -10432.232      61.49559      -10370.737      169.73102      196.75547      52.53847     
     55000  -10427.938      62.817853     -10365.12       169.67064      196.71608      52.559081    
     55100  -10425.468      64.649812     -10360.818      169.61952      196.68682      52.579693    
     55200  -10422.932      64.557035     -10358.375      169.562        196.65201      52.600304    
     55300  -10419.763      61.034544     -10358.728      169.50605      196.62595      52.620916    
     55400  -10417.089      61.346683     -10355.743      169.45202      196.60621      52.641527    
     55500  -10412.921      61.907739     -10351.013      169.38776      196.57604      52.662138    
     55600  -10407.932      62.129922     -10345.802      169.32816      196.55214      52.68275     
     55700  -10404.544      62.622186     -10341.921      169.27102      196.5239       52.703361    
     55800  -10403.33       62.407954     -10340.922      169.21309      196.48507      52.723973    
     55900  -10400.374      60.522112     -10339.851      169.16118      196.45054      52.744584    
     56000  -10397.772      61.933323     -10335.838      169.10542      196.41187      52.765196    
     56100  -10393.449      63.236027     -10330.213      169.04991      196.37698      52.785807    
     56200  -10388.811      62.997987     -10325.813      168.99652      196.35009      52.806418    
     56300  -10386.431      63.522437     -10322.908      168.94047      196.32012      52.82703     
     56400  -10382.847      62.365853     -10320.481      168.89124      196.29754      52.847641    
     56500  -10380.661      62.516686     -10318.145      168.83974      196.27181      52.868253    
     56600  -10377.139      61.807956     -10315.331      168.785        196.24154      52.888864    
     56700  -10375.453      63.616767     -10311.836      168.73469      196.21729      52.909475    
     56800  -10370.838      62.66545      -10308.173      168.67955      196.18376      52.930087    
     56900  -10367.581      63.03455      -10304.546      168.62829      196.15112      52.950698    
     57000  -10363.331      61.940819     -10301.39       168.58012      196.11701      52.97131     
     57100  -10361.293      62.503794     -10298.79       168.52825      196.07769      52.991921    
     57200  -10360.038      63.594788     -10296.443      168.47864      196.04887      53.012532    
     57300  -10354.938      60.853471     -10294.085      168.42717      196.02308      53.033144    
     57400  -10352.768      62.960824     -10289.807      168.37486      195.99478      53.053755    
     57500  -10346.966      63.672474     -10283.294      168.32815      195.97063      53.074367    
     57600  -10345.292      65.37637      -10279.916      168.27808      195.94064      53.094978    
     57700  -10339.416      61.058605     -10278.357      168.23283      195.91619      53.115589    
     57800  -10337.548      61.426455     -10276.122      168.18757      195.89193      53.136201    
     57900  -10336.008      63.276032     -10272.732      168.13435      195.85908      53.156812    
     58000  -10332.376      63.362121     -10269.014      168.08921      195.83383      53.177424    
     58100  -10328.826      62.997759     -10265.828      168.0418       195.80081      53.198035    
     58200  -10327.061      62.848839     -10264.212      167.9932       195.76462      53.218646    
     58300  -10323.915      61.801301     -10262.114      167.95353      195.74327      53.239258    
     58400  -10320.08       62.062679     -10258.018      167.90693      195.716        53.259869    
     58500  -10315.581      64.18105      -10251.4        167.85919      195.68781      53.280481    
     58600  -10311.934      64.552196     -10247.382      167.81962      195.66916      53.301092    
     58700  -10308.151      62.593468     -10245.558      167.77411      195.63865      53.321703    
     58800  -10306.647      63.50724      -10243.14       167.73074      195.60861      53.342315    
     58900  -10303.287      63.022214     -10240.265      167.68927      195.58058      53.362926    
     59000  -10299.287      61.988076     -10237.299      167.64358      195.5483       53.383538    
     59100  -10299.306      64.743007     -10234.563      167.60118      195.52066      53.404149    
     59200  -10294.585      60.94107      -10233.644      167.55805      195.49126      53.42476     
     59300  -10290.218      60.524188     -10229.694      167.51664      195.46272      53.445372    
     59400  -10285.713      62.644439     -10223.068      167.47891      195.43902      53.465983    
     59500  -10282.314      63.550962     -10218.763      167.43985      195.41467      53.486595    
     59600  -10280.685      64.610831     -10216.074      167.40159      195.39154      53.507206    
     59700  -10276.822      61.986545     -10214.835      167.36402      195.37189      53.527817    
     59800  -10274.782      61.780176     -10213.002      167.32231      195.34697      53.548429    
     59900  -10270.834      59.818702     -10211.015      167.28006      195.31709      53.56904     
     60000  -10267.259      60.134544     -10207.125      167.23992      195.28943      53.589652    
     60100  -10262.197      61.517217     -10200.679      167.19509      195.25525      53.610263    
     60200  -10257.096      61.954336     -10195.142      167.15357      195.22477      53.630875    
     60300  -10255.992      64.807529     -10191.184      167.11374      195.19792      53.651486    
     60400  -10251.316      61.405933     -10189.911      167.07413      195.17187      53.672097    
     60500  -10249.872      61.877364     -10187.995      167.03704      195.15021      53.692709    
     60600  -10245.145      61.149341     -10183.996      167.00081      195.1318       53.71332     
     60700  -10242.822      63.313108     -10179.509      166.96502      195.11388      53.733932    
     60800  -10237.782      62.223831     -10175.558      166.93107      195.09981      53.754543    
     60900  -10235.501      61.595476     -10173.906      166.89192      195.07721      53.775154    
     61000  -10232.619      60.469416     -10172.15       166.85369      195.05557      53.795766    
     61100  -10229.32       60.902603     -10168.417      166.81553      195.03083      53.816377    
     61200  -10226.924      64.610581     -10162.313      166.77346      194.99764      53.836989    
     61300  -10220.195      63.335122     -10156.859      166.73914      194.97248      53.8576      
     61400  -10217.135      63.299573     -10153.836      166.70075      194.94234      53.878211    
     61500  -10214.093      62.93504      -10151.158      166.66466      194.91903      53.898823    
     61600  -10212.951      64.494118     -10148.457      166.63253      194.90277      53.919434    
     61700  -10209.383      63.297202     -10146.086      166.59542      194.87967      53.940046    
     61800  -10205.838      62.957684     -10142.88       166.56549      194.86832      53.960657    
     61900  -10201.178      60.189195     -10140.988      166.53141      194.85167      53.981268    
     62000  -10198.838      60.069056     -10138.769      166.49698      194.8335       54.00188     
     62100  -10195.674      62.378326     -10133.296      166.46532      194.81962      54.022491    
     62200  -10191.646      64.520392     -10127.126      166.42741      194.79663      54.043103    
     62300  -10187.743      64.609169     -10123.134      166.39084      194.77127      54.063714    
     62400  -10184.898      64.294562     -10120.603      166.36006      194.74548      54.084325    
     62500  -10179.839      61.835847     -10118.003      166.32872      194.71363      54.104937    
     62600  -10178.15       63.495104     -10114.655      166.29949      194.68704      54.125548    
     62700  -10174.076      63.233102     -10110.842      166.26866      194.66447      54.14616     
     62800  -10168.86       61.92678      -10106.934      166.2354       194.64174      54.166771    
     62900  -10166.561      62.906927     -10103.654      166.20218      194.62287      54.187382    
     63000  -10164.798      62.407138     -10102.391      166.16991      194.60705      54.207994    
     63100  -10160.379      60.931087     -10099.448      166.13886      194.59106      54.228605    
     63200  -10156.443      62.450471     -10093.992      166.10893      194.57368      54.249217    
     63300  -10149.012      61.394579     -10087.618      166.08206      194.55591      54.269828    
     63400  -10148.409      64.786113     -10083.623      166.05528      194.53395      54.290439    
     63500  -10143.678      62.455049     -10081.223      166.02754      194.5091       54.311051    
     63600  -10141.002      62.625836     -10078.376      165.99982      194.48291      54.331662    
     63700  -10136.656      61.880479     -10074.776      165.96881      194.4525       54.352274    
     63800  -10132.295      61.105207     -10071.19       165.93891      194.42676      54.372885    
     63900  -10129.873      61.493936     -10068.379      165.90589      194.4017       54.393496    
     64000  -10126.864      60.120003     -10066.744      165.87342      194.38228      54.414108    
     64100  -10123.428      60.847482     -10062.58       165.84509      194.36998      54.434719    
     64200  -10119.421      63.401649     -10056.019      165.8135       194.34946      54.455331    
     64300  -10113.707      63.657323     -10050.049      165.78903      194.33328      54.475942    
     64400  -10109.911      63.027782     -10046.883      165.76481      194.31278      54.496553    
     64500  -10106.995      62.754506     -10044.241      165.7383       194.28853      54.517165    
     64600  -10102.009      61.231577     -10040.777      165.71467      194.26972      54.537776    
     64700  -10098.373      61.125357     -10037.247      165.68565      194.24274      54.558388    
     64800  -10097.778      63.857659     -10033.92       165.65898      194.22069      54.578999    
     64900  -10093.992      62.533517     -10031.459      165.63286      194.19813      54.599611    
     65000  -10090.305      60.165427     -10030.14       165.60214      194.17215      54.620222    
     65100  -10087.122      62.805985     -10024.316      165.57432      194.15479      54.640833    
     65200  -10080.421      62.810028     -10017.611      165.54402      194.13603      54.661445    
     65300  -10076.189      63.258017     -10012.931      165.51488      194.11742      54.682056    
     65400  -10072.174      62.322696     -10009.852      165.49184      194.10199      54.702668    
     65500  -10071.94       63.554414     -10008.386      165.46687      194.07776      54.723279    
     65600  -10065.832      61.322736     -10004.509      165.44654      194.05659      54.74389     
     65700  -10061.411      62.396713     -9999.0139      165.42095      194.03135      54.764502    
     65800  -10056.031      62.183817     -9993.847       165.39516      194.01036      54.785113    
     65900  -10053.44       63.123319     -9990.3167      165.36971      193.99185      54.805725    
     66000  -10051.198      62.574406     -9988.6234      165.34252      193.97006      54.826336    
     66100  -10048.771      63.601162     -9985.1698      165.31916      193.95313      54.846947    
     66200  -10043.649      64.131521     -9979.5176      165.29397      193.93094      54.867559    
     66300  -10034.973      63.102947     -9971.8704      165.2685       193.90678      54.88817     
     66400  -10030.505      64.816129     -9965.6889      165.2442       193.88205      54.908782    
     66500  -10028.457      65.032782     -9963.4242      165.21768      193.85323      54.929393    
     66600  -10025.719      64.805112     -9960.9141      165.19213      193.82682      54.950004    
     66700  -10021.581      62.844871     -9958.7364      165.167        193.80236      54.970616    
     66800  -10018.404      62.77054      -9955.6339      165.14167      193.77898      54.991227    
     66900  -10014.118      62.202499     -9951.915       165.11805      193.7624       55.011839    
     67000  -10010.936      63.900352     -9947.0361      165.09303      193.74485      55.03245     
     67100  -10003.414      62.908367     -9940.5058      165.0675       193.72459      55.053061    
     67200  -9998.5509      63.867064     -9934.6838      165.0456       193.7047       55.073673    
     67300  -9995.5113      62.786379     -9932.725       165.02191      193.67797      55.094284    
     67400  -9993.0549      63.099816     -9929.9551      165.00104      193.65766      55.114896    
     67500  -9989.683       63.900908     -9925.7821      164.9772       193.63632      55.135507    
     67600  -9984.2872      62.309928     -9921.9772      164.95088      193.61366      55.156118    
     67700  -9981.6458      62.587505     -9919.0583      164.92844      193.59656      55.17673     
     67800  -9975.8422      59.994424     -9915.8478      164.90017      193.57087      55.197341    
     67900  -9973.282       63.536312     -9909.7457      164.87439      193.5487       55.217953    
     68000  -9966.129       62.846091     -9903.2829      164.85066      193.52579      55.238564    
     68100  -9962.1548      63.846698     -9898.3081      164.82735      193.50113      55.259175    
     68200  -9956.4526      62.469637     -9893.9829      164.80894      193.48462      55.279787    
     68300  -9954.3112      62.817105     -9891.4941      164.78442      193.45852      55.300398    
     68400  -9949.0861      61.67361      -9887.4125      164.76399      193.43863      55.32101     
     68500  -9944.3284      61.643209     -9882.6852      164.74017      193.417        55.341621    
     68600  -9940.9816      62.131287     -9878.8503      164.71227      193.39186      55.362232    
     68700  -9938.4193      61.811801     -9876.6074      164.68862      193.3704       55.382844    
     68800  -9932.3438      61.580701     -9870.7631      164.66385      193.34214      55.403455    
     68900  -9927.7198      64.021275     -9863.6985      164.64287      193.31793      55.424067    
     69000  -9919.2212      62.386183     -9856.835       164.62069      193.29289      55.444678    
     69100  -9916.376       63.111549     -9853.2645      164.59521      193.26493      55.46529     
     69200  -9914.4246      63.146415     -9851.2782      164.57449      193.24532      55.485901    
     69300  -9911.3263      63.802136     -9847.5242      164.55021      193.22283      55.506512    
     69400  -9904.8653      62.404425     -9842.4609      164.52625      193.20243      55.527124    
     69500  -9899.057       62.553503     -9836.5035      164.5029       193.18416      55.547735    
     69600  -9893.4863      62.121244     -9831.3651      164.47771      193.16126      55.568347    
     69700  -9891.9348      63.511032     -9828.4238      164.45524      193.13975      55.588958    
     69800  -9885.9814      61.687793     -9824.2936      164.43148      193.11572      55.609569    
     69900  -9882.1189      63.798571     -9818.3204      164.40702      193.09026      55.630181    
     70000  -9876.7306      62.729236     -9814.0014      164.38365      193.0692       55.650792    
     70100  -9874.0053      62.576549     -9811.4288      164.35674      193.04747      55.671404    
     70200  -9866.1726      60.377324     -9805.7953      164.33093      193.02846      55.692015    
     70300  -9862.3804      63.806199     -9798.5742      164.30482      193.00877      55.712626    
     70400  -9857.5297      63.818088     -9793.7116      164.27912      192.98628      55.733238    
     70500  -9854.4149      62.853619     -9791.5613      164.25679      192.96582      55.753849    
     70600  -9846.7134      61.28861      -9785.4248      164.23424      192.94396      55.774461    
     70700  -9843.4874      63.275074     -9780.2123      164.21249      192.92088      55.795072    
     70800  -9839.6051      63.277662     -9776.3275      164.18965      192.89519      55.815683    
     70900  -9833.9378      62.77772      -9771.1601      164.16463      192.86737      55.836295    
     71000  -9827.74        62.84188      -9764.8981      164.13902      192.84122      55.856906    
     71100  -9822.528       63.27261      -9759.2554      164.11441      192.81511      55.877518    
     71200  -9819.6319      64.543623     -9755.0883      164.09244      192.79093      55.898129    
     71300  -9817.0058      66.808712     -9750.1971      164.07062      192.76457      55.91874     
     71400  -9807.4396      62.234326     -9745.2053      164.04956      192.73648      55.939352    
     71500  -9805.1174      64.85944      -9740.2579      164.02938      192.70932      55.959963    
     71600  -9796.7968      61.664931     -9735.1318      164.00614      192.67974      55.980575    
     71700  -9795.3831      65.429733     -9729.9534      163.98522      192.65557      56.001186    
     71800  -9788.1805      63.07086      -9725.1096      163.96223      192.62969      56.021797    
     71900  -9784.524       65.237601     -9719.2864      163.93935      192.60086      56.042409    
     72000  -9778.4184      63.833121     -9714.5853      163.92033      192.57375      56.06302     
     72100  -9772.3977      63.191508     -9709.2062      163.89835      192.54009      56.083632    
     72200  -9766.6084      62.84362      -9703.7648      163.87931      192.51283      56.104243    
     72300  -9761.921       63.50767      -9698.4133      163.85816      192.48639      56.124854    
     72400  -9756.8784      63.336721     -9693.5417      163.8336       192.45833      56.145466    
     72500  -9750.9425      62.678922     -9688.2636      163.81142      192.43419      56.166077    
     72600  -9746.5416      63.558197     -9682.9834      163.78533      192.40254      56.186689    
     72700  -9742.4153      64.13134      -9678.284       163.76182      192.3725       56.2073      
[...]
     81600  -11050.211      68.193226     -10982.018      160.62341      188.51191      58.041715    
     81700  -11054.827      64.757684     -10990.069      160.55591      188.4532       58.062326    
     81800  -11057.431      59.457957     -10997.973      160.49371      188.40409      58.082938    
     81900  -11057.837      58.392156     -10999.445      160.43252      188.3489       58.103549    
     82000  -11055.515      61.552366     -10993.963      160.37389      188.29261      58.124161    
     82100  -11053.82       66.85871      -10986.961      160.31853      188.23122      58.144772    
     82200  -11053.152      67.025193     -10986.126      160.26265      188.16111      58.165383    
     82300  -11053.337      61.39492      -10991.942      160.20956      188.09432      58.185995    
     82400  -11056.367      59.476347     -10996.89       160.15856      188.03608      58.206606    
     82500  -11056.742      60.334653     -10996.408      160.11378      187.98557      58.227218    
     82600  -11053.611      62.209298     -10991.401      160.06111      187.92989      58.247829    
     82700  -11051.166      64.816751     -10986.35       160.00494      187.87314      58.268441    
     82800  -11049.781      64.71214      -10985.069      159.9449       187.80202      58.289052    
     82900  -11052.242      63.646342     -10988.595      159.8869       187.72771      58.309663    
     83000  -11054.297      61.723822     -10992.573      159.82973      187.65647      58.330275    
     83100  -11055.209      61.313816     -10993.895      159.76365      187.58751      58.350886    
     83200  -11054.343      62.516021     -10991.827      159.6958       187.52317      58.371498    
     83300  -11054.317      66.569753     -10987.747      159.62977      187.46525      58.392109    
     83400  -11051.987      64.794074     -10987.193      159.56028      187.40138      58.41272     
     83500  -11051.69       61.717109     -10989.973      159.49785      187.34306      58.433332    
     83600  -11051.236      60.15089      -10991.085      159.43915      187.29463      58.453943    
     83700  -11051.332      62.447538     -10988.884      159.37295      187.23808      58.474555    
     83800  -11048.39       62.80774      -10985.582      159.30106      187.18433      58.495166    
     83900  -11046.823      64.485797     -10982.338      159.2317       187.14119      58.515777    
     84000  -11044.583      63.793214     -10980.79       159.16576      187.0993       58.536389    
     84100  -11043.252      61.818534     -10981.434      159.09874      187.05251      58.557       
     84200  -11046.156      63.274655     -10982.881      159.03496      186.99887      58.577612    
     84300  -11045.009      61.462493     -10983.547      158.97605      186.94369      58.598223    
     84400  -11043.6        63.142238     -10980.458      158.9157       186.88715      58.618834    
     84500  -11041.277      64.518352     -10976.758      158.85291      186.81941      58.639446    
     84600  -11041.215      66.021215     -10975.194      158.79304      186.74589      58.660057    
     84700  -11039.054      63.06372      -10975.99       158.73833      186.67361      58.680669    
     84800  -11039.636      62.320411     -10977.315      158.69147      186.60354      58.70128     
     84900  -11038.653      61.134423     -10977.519      158.64351      186.53073      58.721891    
     85000  -11038.105      62.561079     -10975.544      158.59678      186.45698      58.742503    
     85100  -11037.87       64.534341     -10973.335      158.54753      186.3762       58.763114    
     85200  -11036.842      63.282818     -10973.559      158.49905      186.29734      58.783726    
     85300  -11037.113      62.635574     -10974.477      158.44908      186.22835      58.804337    
     85400  -11036.312      62.302816     -10974.01       158.39849      186.16453      58.824948    
     85500  -11034.384      62.426186     -10971.958      158.34796      186.10764      58.84556     
     85600  -11032.996      62.550647     -10970.445      158.29055      186.04249      58.866171    
     85700  -11033.346      64.089092     -10969.257      158.22938      185.98234      58.886783    
     85800  -11032.897      63.978267     -10968.919      158.16903      185.92779      58.907394    
     85900  -11033.336      63.124359     -10970.212      158.10268      185.86618      58.928005    
     86000  -11031.68       60.639316     -10971.041      158.03134      185.79662      58.948617    
     86100  -11030.946      62.017867     -10968.928      157.95883      185.73038      58.969228    
     86200  -11030.659      64.402175     -10966.256      157.89588      185.68188      58.98984     
     86300  -11028.578      63.513336     -10965.064      157.83712      185.63759      59.010451    
     86400  -11029.787      63.707585     -10966.079      157.77915      185.59418      59.031062    
     86500  -11027.602      62.984594     -10964.618      157.71597      185.53558      59.051674    
     86600  -11029.899      64.265561     -10965.633      157.64793      185.46957      59.072285    
     86700  -11028.105      61.399087     -10966.706      157.57401      185.39772      59.092897    
     86800  -11025.65       60.199228     -10965.451      157.50527      185.33984      59.113508    
     86900  -11026.037      64.121198     -10961.916      157.44073      185.28315      59.13412     
     87000  -11023.488      64.200803     -10959.287      157.37446      185.22776      59.154731    
     87100  -11021.501      62.528738     -10958.973      157.31299      185.17621      59.175342    
     87200  -11025.253      64.085058     -10961.168      157.25802      185.11947      59.195954    
     87300  -11025          60.678305     -10964.321      157.20179      185.05422      59.216565    
     87400  -11024.299      61.271677     -10963.027      157.15351      184.99565      59.237177    
     87500  -11024.826      62.818131     -10962.008      157.1126       184.94837      59.257788    
     87600  -11022.513      63.802143     -10958.71       157.06824      184.88758      59.278399    
     87700  -11020.532      64.284827     -10956.247      157.01705      184.81939      59.299011    
     87800  -11021.532      65.144611     -10956.388      156.96297      184.7541       59.319622    
     87900  -11018.843      61.086617     -10957.756      156.91033      184.6956       59.340234    
     88000  -11019.861      61.791214     -10958.07       156.86582      184.6425       59.360845    
     88100  -11021.342      64.232422     -10957.11       156.82551      184.59393      59.381456    
     88200  -11016.922      61.52691      -10955.395      156.78407      184.54733      59.402068    
     88300  -11016.259      63.422147     -10952.837      156.73594      184.49384      59.422679    
     88400  -11015.073      63.978988     -10951.094      156.68084      184.42943      59.443291    
     88500  -11014.747      62.986654     -10951.76       156.62862      184.36508      59.463902    
     88600  -11014.71       61.790948     -10952.919      156.58321      184.30968      59.484513    
     88700  -11014.527      61.736168     -10952.791      156.53571      184.24958      59.505125    
     88800  -11013.074      62.5176       -10950.557      156.48199      184.18519      59.525736    
     88900  -11012.542      64.56101      -10947.981      156.4325       184.12952      59.546348    
     89000  -11012.252      63.929549     -10948.323      156.38335      184.08087      59.566959    
     89100  -11017.071      63.745787     -10953.325      156.33379      184.04051      59.58757     
     89200  -11019.779      62.012447     -10957.767      156.27946      184.00197      59.608182    
     89300  -11018.639      60.641513     -10957.997      156.22709      183.96972      59.628793    
     89400  -11015.565      61.885581     -10953.679      156.17367      183.93348      59.649405    
     89500  -11011.645      64.692352     -10946.953      156.1271       183.89452      59.670016    
     89600  -11007.364      64.525427     -10942.839      156.08405      183.84991      59.690627    
     89700  -11007.918      63.05489      -10944.864      156.0431       183.79963      59.711239    
     89800  -11011.849      61.81291      -10950.036      156.00852      183.74577      59.73185     
     89900  -11011.893      58.70544      -10953.188      155.9746       183.69278      59.752462    
     90000  -11010.253      60.049463     -10950.203      155.94376      183.65039      59.773073    
     90100  -11007.592      64.788428     -10942.804      155.90464      183.60355      59.793684    
     90200  -11002.135      64.682356     -10937.453      155.86656      183.55914      59.814296    
     90300  -11004.046      65.410778     -10938.636      155.82853      183.51191      59.834907    
     90400  -11008.103      63.412633     -10944.69       155.79127      183.47134      59.855519    
     90500  -11008.43       59.409939     -10949.02       155.75128      183.42717      59.87613     
     90600  -11005.083      57.960511     -10947.123      155.71502      183.38821      59.896741    
     90700  -11002.451      62.032191     -10940.419      155.68122      183.34635      59.917353    
     90800  -10999.133      64.661117     -10934.472      155.65179      183.29781      59.937964    
     90900  -11000.251      65.619369     -10934.631      155.61995      183.23858      59.958576    
     91000  -11006.172      65.81585      -10940.356      155.58458      183.18041      59.979187    
     91100  -11004.606      59.656028     -10944.95       155.54879      183.13544      59.999798    
     91200  -11003.563      60.325201     -10943.238      155.51183      183.09175      60.02041     
     91300  -11003.674      62.161879     -10941.512      155.48497      183.05485      60.041021    
     91400  -10999.97       61.796331     -10938.173      155.45526      183.00833      60.061633    
     91500  -11001.291      65.696513     -10935.595      155.42493      182.9603       60.082244    
     91600  -10999.487      64.306712     -10935.181      155.39376      182.91131      60.102856    
     91700  -11000.872      64.617506     -10936.255      155.36501      182.87299      60.123467    
     91800  -10999.396      62.31648      -10937.08       155.33388      182.8358       60.144078    
     91900  -10998.866      63.106318     -10935.76       155.306        182.79917      60.16469     
     92000  -10996.63       63.897744     -10932.732      155.2841       182.76061      60.185301    
     92100  -10994.139      63.260683     -10930.878      155.25999      182.72531      60.205913    
     92200  -10996.23       65.334516     -10930.896      155.23111      182.69924      60.226524    
     92300  -10995.068      63.658998     -10931.409      155.2016       182.67601      60.247135    
     92400  -10991.493      60.465371     -10931.027      155.16885      182.644        60.267747    
     92500  -10991.476      62.302621     -10929.173      155.13642      182.60822      60.288358    
     92600  -10990.536      64.735652     -10925.801      155.10483      182.57146      60.30897     
     92700  -10989.89       64.98618      -10924.904      155.07645      182.54145      60.329581    
     92800  -10990.353      63.580086     -10926.773      155.04558      182.50893      60.350192    
     92900  -10990.679      61.555885     -10929.123      155.01043      182.47974      60.370804    
     93000  -10990.026      61.417585     -10928.608      154.97492      182.44994      60.391415    
     93100  -10987.712      62.913795     -10924.798      154.93666      182.41973      60.412027    
     93200  -10985.49       64.780231     -10920.71       154.90097      182.38898      60.432638    
     93300  -10983.519      64.334124     -10919.185      154.87202      182.35521      60.453249    
     93400  -10986.308      64.992886     -10921.315      154.85017      182.32566      60.473861    
     93500  -10984.933      60.356498     -10924.576      154.83097      182.29153      60.494472    
     93600  -10983.806      59.373478     -10924.433      154.81177      182.259        60.515084    
     93700  -10983.437      62.836552     -10920.6        154.78821      182.22707      60.535695    
     93800  -10981.013      64.623644     -10916.39       154.77039      182.20974      60.556306    
     93900  -10978.711      63.842008     -10914.869      154.75538      182.18618      60.576918    
     94000  -10982.611      65.864132     -10916.747      154.74242      182.15373      60.597529    
     94100  -10983.426      61.743461     -10921.683      154.73069      182.11912      60.618141    
     94200  -10983.16       58.476507     -10924.684      154.71681      182.08104      60.638752    
     94300  -10983.508      61.184448     -10922.323      154.69743      182.04259      60.659363    
     94400  -10979.34       62.700441     -10916.64       154.67255      182.00384      60.679975    
     94500  -10977.584      65.039958     -10912.544      154.64844      181.97092      60.700586    
     94600  -10978.525      64.928567     -10913.597      154.62311      181.9398       60.721198    
     94700  -10979.578      62.16707      -10917.411      154.60245      181.91583      60.741809    
     94800  -10979.931      60.867105     -10919.064      154.57822      181.89236      60.76242     
     94900  -10977.764      61.098996     -10916.665      154.54935      181.8721       60.783032    
     95000  -10975.787      63.645805     -10912.141      154.51772      181.85867      60.803643    
     95100  -10975.441      66.509498     -10908.931      154.4849       181.84952      60.824255    
     95200  -10975.396      66.126899     -10909.27       154.44996      181.83677      60.844866    
     95300  -10977.437      68.38856      -10909.048      154.41351      181.81992      60.865477    
     95400  -10983.807      62.558635     -10921.248      154.37979      181.79837      60.886089    
     95500  -10988.606      58.37834      -10930.227      154.35103      181.77706      60.9067      
     95600  -10989.935      57.690674     -10932.245      154.329        181.75316      60.927312    
     95700  -10985.365      59.552364     -10925.812      154.30674      181.73036      60.947923    
     95800  -10986.309      70.226011     -10916.083      154.28102      181.70327      60.968535    
     95900  -10983.25       67.844645     -10915.405      154.2586       181.67666      60.989146    
     96000  -10987.568      62.77319      -10924.795      154.24124      181.65798      61.009757    
     96100  -10991.55       59.608723     -10931.941      154.22695      181.64367      61.030369    
     96200  -10995.032      61.979544     -10933.052      154.21412      181.62123      61.05098     
     96300  -10988.246      60.855505     -10927.391      154.19673      181.5909       61.071592    
     96400  -10985.281      65.756666     -10919.524      154.17952      181.55909      61.092203    
     96500  -10981.035      65.64055      -10915.394      154.15656      181.53241      61.112814    
     96600  -10981.255      63.690507     -10917.565      154.13478      181.51325      61.133426    
     96700  -10984.579      61.528603     -10923.05       154.1171       181.49069      61.154037    
     96800  -10984.494      59.115671     -10925.378      154.09132      181.46163      61.174649    
     96900  -10983.287      60.553664     -10922.733      154.07086      181.44034      61.19526     
     97000  -10981.103      64.991184     -10916.111      154.05312      181.42703      61.215871    
     97100  -10976.571      65.462993     -10911.108      154.03386      181.41188      61.236483    
     97200  -10975.081      63.976644     -10911.104      154.01199      181.3974       61.257094    
     97300  -10978.999      63.082946     -10915.916      153.99623      181.38883      61.277706    
     97400  -10979.943      59.716717     -10920.226      153.97613      181.37408      61.298317    
     97500  -10979.326      60.318405     -10919.007      153.95002      181.3512       61.318928    
     97600  -10977.07       64.912677     -10912.158      153.93112      181.33425      61.33954     
     97700  -10973.489      67.317712     -10906.172      153.91328      181.31073      61.360151    
     97800  -10971.867      64.773525     -10907.094      153.89081      181.28731      61.380763    
     97900  -10974.404      62.718616     -10911.685      153.86408      181.26471      61.401374    
     98000  -10972.563      59.736782     -10912.826      153.83595      181.24977      61.421985    
     98100  -10971.259      59.580647     -10911.678      153.80257      181.23151      61.442597    
     98200  -10968.928      62.60052      -10906.328      153.77669      181.22712      61.463208    
     98300  -10965.73       62.821992     -10902.908      153.75237      181.2252       61.48382     
     98400  -10967.875      64.473565     -10903.401      153.7297       181.22115      61.504431    
     98500  -10967.94       61.642026     -10906.298      153.70548      181.21441      61.525042    
     98600  -10967.819      60.459641     -10907.359      153.68336      181.20855      61.545654    
     98700  -10966.111      60.85767      -10905.253      153.65903      181.20038      61.566265    
     98800  -10962.979      62.42711      -10900.552      153.63135      181.1818       61.586877    
     98900  -10962.097      64.711641     -10897.385      153.60902      181.1648       61.607488    
     99000  -10963.389      65.295089     -10898.093      153.59093      181.14652      61.628099    
     99100  -10962.047      60.932072     -10901.115      153.5778       181.12517      61.648711    
     99200  -10965.524      62.490327     -10903.034      153.56208      181.09832      61.669322    
     99300  -10961.91       61.850444     -10900.059      153.54559      181.07878      61.689934    
     99400  -10962.547      64.402517     -10898.145      153.52601      181.0633       61.710545    
     99500  -10961.457      63.634806     -10897.823      153.50289      181.04043      61.731156    
     99600  -10961.418      63.265129     -10898.153      153.48369      181.03016      61.751768    
     99700  -10960.148      61.921907     -10898.226      153.4609       181.01536      61.772379    
     99800  -10958.292      61.404899     -10896.887      153.43265      180.99318      61.792991    
     99900  -10957.96       63.318124     -10894.642      153.40781      180.97154      61.813602    
    100000  -10954.233      61.965439     -10892.267      153.39067      180.95719      61.834213    
Loop time of 27035.3 on 12 procs for 100000 steps with 1620 atoms

Performance: 0.320 ns/day, 75.098 hours/ns, 3.699 timesteps/s, 5.992 katom-step/s
41.9% CPU use with 12 MPI tasks x 1 OpenMP threads

MPI task timing breakdown:
Section |  min time  |  avg time  |  max time  |%varavg| %total
---------------------------------------------------------------
Pair    | 0.55184    | 476.08     | 2877.6     |4873.2 |  1.76
Neigh   | 0.0039979  | 2.5736     | 15.581     | 358.0 |  0.01
Comm    | 24.697     | 276.39     | 1642.3     |3383.4 |  1.02
Output  | 105.08     | 108.28     | 111.36     |  18.9 |  0.40
Modify  | 19328      | 23104      | 23837      |1071.7 | 85.46
Other   |            | 3068       |            |       | 11.35

Nlocal:            135 ave         821 max           0 min
Histogram: 10 0 0 0 0 0 0 0 0 2
Nghost:            254 ave        1535 max           0 min
Histogram: 10 0 0 0 0 0 0 0 0 2
Neighs:              0 ave           0 max           0 min
Histogram: 12 0 0 0 0 0 0 0 0 0

Total # of neighbors = 0
Ave neighs/atom = 0
Neighbor list builds = 382
Dangerous builds = 0
Total wall time: 7:30:42
