LAMMPS (2 Aug 2023 - Update 3)
OMP_NUM_THREADS environment is not set. Defaulting to 1 thread. (src/comm.cpp:98)
  using 1 OpenMP thread(s) per MPI task

# 1------general---------------
units                             metal      #单位为lammps 中的metel 类型
dimension                    3          #模拟的维度 三维
boundary                    p p p      #周期边界条件
atom_style                  atomic   #原子类型自动
atom_modify              map array sort 100 2.0
neighbor                    3.0 bin
neigh_modify            every 1 delay 0 check yes
#2 -----global variable-------定义全局变量，方便统一修改；
variable temperature equal 300
variable tstep equal 0.001
variable pressure equal 0
variable thermalstep equal 100
variable dumpstep equal 1000
variable relaxtime equal 0
variable totaltime equal 100000
variable deformrate equal 5e-3
#3 -------model------------
#box tilt large
read_data     1.lmp
Reading data file ...
  orthogonal box = (-100 -100 -2.3312511) to (100 100 38.891558)
  3 by 4 by 1 MPI processor grid
  reading atoms ...
  784 atoms
  read_data CPU = 0.864 seconds
group SR type 2
240 atoms in group SR
delete_atoms group SR
Deleted 240 atoms, new total = 544

replicate 1 1 9
Replication is creating a 1x1x9 = 9 times larger system...
  orthogonal box = (-100 -100 -2.3312511) to (100 100 368.67403)
  2 by 2 by 3 MPI processor grid
  4896 atoms
  replicate CPU = 0.948 seconds
write_data l.data
System init for write_data ...
WARNING: Communication cutoff is 0.0. No ghost atoms will be generated. Atoms may get lost. (src/comm_brick.cpp:210)

pair_style hybrid airebo 3.0 airebo 3.0  lj/cut 10
pair_coeff * * airebo 1 CH.airebo C NULL
Reading airebo potential file CH.airebo with DATE: 2011-10-25
pair_coeff * * airebo 2 CH.airebo NULL C
Reading airebo potential file CH.airebo with DATE: 2011-10-25
pair_coeff 1 2 lj/cut 0.00456 3.431

# 5------minimize -----------
min_style      sd
minimize       1.0e-4 1.0e-6 100 1000
Neighbor list info ...
  update: every = 1 steps, delay = 0 steps, check = yes
  max neighbors/atom: 2000, page size: 100000
  master list distance cutoff = 13.2
  ghost atom cutoff = 13.2
  binsize = 6.6, bins = 31 31 57
  5 neighbor lists, perpetual/occasional/extra = 5 0 0
  (1) pair airebo, perpetual, skip from (4)
      attributes: full, newton on, ghost
      pair build: skip/ghost
      stencil: none
      bin: none
  (2) pair airebo, perpetual, skip from (4)
      attributes: full, newton on, ghost
      pair build: skip/ghost
      stencil: none
      bin: none
  (3) pair lj/cut, perpetual, skip from (5)
      attributes: half, newton on, cut 13
      pair build: skip
      stencil: none
      bin: none
  (4) neighbor class addition, perpetual
      attributes: full, newton on, ghost
      pair build: full/bin/ghost
      stencil: full/ghost/bin/3d
      bin: standard
  (5) neighbor class addition, perpetual
      attributes: half, newton on, cut 13
      pair build: half/bin/atomonly/newton
      stencil: half/bin/3d
      bin: standard
Per MPI rank memory allocation (min/avg/max) = 9.355 | 9.355 | 9.357 Mbytes
   Step          Temp          E_pair         E_mol          TotEng         Press     
         0   0             -36155.568      0             -36155.568      30.842369    
         1   0             -36155.966      0             -36155.966      30.157447    
Loop time of 1.26233 on 12 procs for 1 steps with 4896 atoms

35.2% CPU use with 12 MPI tasks x 1 OpenMP threads

Minimization stats:
  Stopping criterion = energy tolerance
  Energy initial, next-to-last, final = 
     -36155.5683907963  -36155.5683907963  -36155.9661530723
  Force two-norm initial, final = 10.435565 2.2381243
  Force max component initial, final = 0.14888908 0.031904291
  Final line search alpha, max atom move = 0.67164094 0.021428228
  Iterations, force evaluations = 1 2

MPI task timing breakdown:
Section |  min time  |  avg time  |  max time  |%varavg| %total
---------------------------------------------------------------
Pair    | 0.014394   | 0.031398   | 0.087305   |  12.7 |  2.49
Neigh   | 0          | 0          | 0          |   0.0 |  0.00
Comm    | 0.25734    | 0.33554    | 0.37592    |   6.9 | 26.58
Output  | 0          | 0          | 0          |   0.0 |  0.00
Modify  | 0          | 0          | 0          |   0.0 |  0.00
Other   |            | 0.8954     |            |       | 70.93

Nlocal:            408 ave         459 max         357 min
Histogram: 3 0 0 0 0 6 0 0 0 3
Nghost:           1560 ave        1611 max        1509 min
Histogram: 3 0 0 0 0 6 0 0 0 3
Neighs:              0 ave           0 max           0 min
Histogram: 12 0 0 0 0 0 0 0 0 0

Total # of neighbors = 0
Ave neighs/atom = 0
Neighbor list builds = 0
Dangerous builds = 0
#6----define computes------
variable nums equal count(all) #计算原子数目
variable toval equal 13.369*13.369*lz #计算系统总体积，单层石墨烯厚度为0.335nm
variable vol equal ${toval} #体系的初始体积
variable vol equal 66309.8339591877 
variable vatom equal v_vol/v_nums #单个原子体积
compute 1 all stress/atom NULL #计算体系中单原子应力
compute xalls all reduce sum c_1[1]
variable xstress equal (c_xalls)/(v_toval*10000)
compute yalls all reduce sum c_1[2]
variable ystress equal (c_yalls)/(v_toval*10000)
compute zalls all reduce sum c_1[3]
variable zstress equal (c_zalls)/(v_toval*10000)
#7---------relaxation-------------------------
timestep ${tstep}
timestep 0.001
#------------5 温度初始化------------------------------
velocity all create 300 4928459 dist gaussian units box
#------------------------------------------------------
dump   1 all atom 100 all-cy.lammpstrj
#fix    1 all npt temp 300 300  0.1 aniso 0 0  drag 1  #三个方向独立控压
fix  s all npt temp ${temperature} ${temperature} 0.1 y ${pressure} ${pressure} 10 x ${pressure} ${pressure} 10
fix  s all npt temp 300 ${temperature} 0.1 y ${pressure} ${pressure} 10 x ${pressure} ${pressure} 10
fix  s all npt temp 300 300 0.1 y ${pressure} ${pressure} 10 x ${pressure} ${pressure} 10
fix  s all npt temp 300 300 0.1 y 0 ${pressure} 10 x ${pressure} ${pressure} 10
fix  s all npt temp 300 300 0.1 y 0 0 10 x ${pressure} ${pressure} 10
fix  s all npt temp 300 300 0.1 y 0 0 10 x 0 ${pressure} 10
fix  s all npt temp 300 300 0.1 y 0 0 10 x 0 0 10
thermo                1000
thermo_modify       lost ignore
compute  2 all pe/atom
compute  pe all reduce sum c_2
variable PE equal "c_pe"
fix    pe all print 100 "${PE} " file PE.txt screen no
thermo  ${thermalstep}
thermo  100
#thermo_style  custom step pe ke etotal lx ly lz
run   ${relaxtime}
run   0
Per MPI rank memory allocation (min/avg/max) = 9.98 | 9.98 | 9.982 Mbytes
   Step          Temp          E_pair         E_mol          TotEng         Press          Volume    
         1   300           -36155.966      0             -35966.148      43.819551      14840211     
Loop time of 0.0619946 on 12 procs for 0 steps with 4896 atoms

34.4% CPU use with 12 MPI tasks x 1 OpenMP threads

MPI task timing breakdown:
Section |  min time  |  avg time  |  max time  |%varavg| %total
---------------------------------------------------------------
Pair    | 0          | 0          | 0          |   0.0 |  0.00
Neigh   | 0          | 0          | 0          |   0.0 |  0.00
Comm    | 0          | 0          | 0          |   0.0 |  0.00
Output  | 0          | 0          | 0          |   0.0 |  0.00
Modify  | 0          | 0          | 0          |   0.0 |  0.00
Other   |            | 0.06199    |            |       |100.00

Nlocal:            408 ave         408 max         408 min
Histogram: 12 0 0 0 0 0 0 0 0 0
Nghost:           1560 ave        1560 max        1560 min
Histogram: 12 0 0 0 0 0 0 0 0 0
Neighs:              0 ave           0 max           0 min
Histogram: 12 0 0 0 0 0 0 0 0 0

Total # of neighbors = 0
Ave neighs/atom = 0
Neighbor list builds = 0
Dangerous builds = 0
#8 -------tension-----------------------------
unfix s
undump  1
unfix  pe
reset_timestep 0
fix avestress all ave/atom 1 ${dumpstep} ${dumpstep} c_1[1] c_1[2] c_1[3] c_1[4] c_1[5] c_1[6]
fix avestress all ave/atom 1 1000 ${dumpstep} c_1[1] c_1[2] c_1[3] c_1[4] c_1[5] c_1[6]
fix avestress all ave/atom 1 1000 1000 c_1[1] c_1[2] c_1[3] c_1[4] c_1[5] c_1[6]

#-----calculation of strain and Cumulative compression--------
variable                tmp equal "lz"
variable                L0 equal ${tmp}
variable                L0 equal 371.0052829818
variable                strain equal "(lz - v_L0)/v_L0"
variable                Cumulativels equal "(lz - v_L0)/10"
fix Step all print 100 "${strain} ${Cumulativels} ${zstress}" file grapoten.txt screen no

dump 2 all custom ${dumpstep} tension.xyz type x y z f_avestress[1] f_avestress[2] f_avestress[3] f_avestress[4] f_avestress[5] f_avestress[6]
dump 2 all custom 1000 tension.xyz type x y z f_avestress[1] f_avestress[2] f_avestress[3] f_avestress[4] f_avestress[5] f_avestress[6]

fix  1 all npt temp ${temperature} ${temperature} 0.1 y ${pressure} ${pressure} 10 x ${pressure} ${pressure} 10
fix  1 all npt temp 300 ${temperature} 0.1 y ${pressure} ${pressure} 10 x ${pressure} ${pressure} 10
fix  1 all npt temp 300 300 0.1 y ${pressure} ${pressure} 10 x ${pressure} ${pressure} 10
fix  1 all npt temp 300 300 0.1 y 0 ${pressure} 10 x ${pressure} ${pressure} 10
fix  1 all npt temp 300 300 0.1 y 0 0 10 x ${pressure} ${pressure} 10
fix  1 all npt temp 300 300 0.1 y 0 0 10 x 0 ${pressure} 10
fix  1 all npt temp 300 300 0.1 y 0 0 10 x 0 0 10

thermo_style custom step pe ke etotal lx ly lz
WARNING: New thermo_style command, previous thermo_modify settings will be lost (src/output.cpp:903)
fix   2 all deform 1 z erate ${deformrate} remap x units box
fix   2 all deform 1 z erate 0.005 remap x units box
fix   3 all ave/time 2 500 1000 v_xstress v_ystress v_zstress file pressure.out
run   ${totaltime}
run   100000
WARNING: Dump 2 includes no atom IDs and is not sorted by ID. This may complicate post-processing tasks or visualization (src/dump.cpp:221)
Per MPI rank memory allocation (min/avg/max) = 11.48 | 11.48 | 11.48 Mbytes
   Step         PotEng         KinEng         TotEng           Lx             Ly             Lz      
         0  -36155.966      189.81852     -35966.148      200            200            371.00528    
       100  -36048.133      97.45251      -35950.681      200.00514      200.00471      371.19079    
       200  -36044.313      115.6595      -35928.653      200.00268      200.00178      371.37629    
       300  -36028.298      126.02651     -35902.271      199.99647      199.99527      371.56179    
       400  -36017.398      143.87473     -35873.524      200.00316      200.00153      371.74729    
       500  -36000.174      156.6574      -35843.516      199.99562      199.9932       371.9328     
       600  -35988.194      174.01978     -35814.175      199.99492      199.99201      372.1183     
       700  -35969.262      180.81752     -35788.445      199.9991       199.99501      372.3038     
       800  -35963.415      194.26391     -35769.151      199.98918      199.98342      372.4893     
       900  -35959.605      197.71192     -35761.893      199.99403      199.98697      372.67481    
      1000  -35960.776      191.33993     -35769.436      199.99141      199.98232      372.86031    
      1100  -35965.976      185.57567     -35780.401      199.98453      199.97381      373.04581    
      1200  -35968.594      183.31365     -35785.28       199.98932      199.9771       373.23131    
      1300  -35968.153      187.59718     -35780.556      199.98175      199.96769      373.41682    
      1400  -35962.477      192.50044     -35769.976      199.98         199.96502      373.60232    
      1500  -35957.26       193.57857     -35763.681      199.98035      199.96422      373.78782    
      1600  -35957.805      192.00079     -35765.805      199.97166      199.9544       373.97333    
      1700  -35960.354      187.48677     -35772.867      199.97243      199.95484      374.15883    
      1800  -35960.084      182.56304     -35777.521      199.96689      199.9489       374.34433    
      1900  -35960.004      185.93139     -35774.073      199.96132      199.94294      374.52983    
      2000  -35954.685      189.14625     -35765.539      199.96023      199.94179      374.71534    
      2100  -35949.917      191.12737     -35758.79       199.9528       199.93348      374.90084    
      2200  -35950.161      191.77691     -35758.384      199.95075      199.93014      375.08634    
      2300  -35953.736      190.42361     -35763.312      199.94606      199.9241       375.27184    
      2400  -35955.844      188.35454     -35767.49       199.94086      199.9168       375.45735    
      2500  -35953.19       186.81975     -35766.37       199.93831      199.91183      375.64285    
      2600  -35945.999      186.73132     -35759.268      199.93234      199.90357      375.82835    
      2700  -35945.859      194.11882     -35751.74       199.92851      199.8974       376.01385    
      2800  -35941.089      192.46757     -35748.621      199.92346      199.88998      376.19936    
      2900  -35943.487      191.48446     -35752.003      199.91753      199.88245      376.38486    
      3000  -35945.56       189.34439     -35756.216      199.91303      199.87638      376.57036    
      3100  -35945.025      188.55204     -35756.473      199.9052       199.86725      376.75586    
      3200  -35938.262      186.98868     -35751.273      199.90077      199.86253      376.94137    
      3300  -35934.246      190.4421      -35743.804      199.89255      199.85393      377.12687    
      3400  -35932.527      193.51648     -35739.011      199.88541      199.84644      377.31237    
      3500  -35930.812      191.41541     -35739.396      199.87994      199.8408       377.49788    
      3600  -35930.111      187.59353     -35742.517      199.87015      199.83056      377.68338    
      3700  -35930.149      186.96652     -35743.182      199.86507      199.82404      377.86888    
      3800  -35925.29       186.24775     -35739.043      199.857        199.81492      378.05438    
      3900  -35925.157      193.27637     -35731.881      199.84903      199.805        378.23989    
      4000  -35918.875      192.26258     -35726.612      199.8437       199.79737      378.42539    
      4100  -35915.108      189.282       -35725.826      199.8335       199.78583      378.61089    
      4200  -35916.841      188.95011     -35727.891      199.82696      199.7775       378.79639    
      4300  -35916.067      187.73892     -35728.328      199.81782      199.76715      378.9819     
      4400  -35911.317      186.78097     -35724.536      199.8076       199.75673      379.1674     
      4500  -35906.953      188.79383     -35718.159      199.80013      199.74898      379.3529     
      4600  -35904.494      191.69796     -35712.796      199.78769      199.73627      379.5384     
      4700  -35901.829      191.30183     -35710.527      199.77955      199.72826      379.72391    
      4800  -35901.879      190.59977     -35711.279      199.7687       199.71683      379.90941    
      4900  -35899.575      187.72328     -35711.851      199.75705      199.70449      380.09491    
      5000  -35897.032      187.67749     -35709.354      199.74878      199.6956       380.28042    
      5100  -35892.627      189.22764     -35703.4        199.7358       199.68101      380.46592    
      5200  -35887.953      191.14894     -35696.804      199.72679      199.66993      380.65142    
      5300  -35884.07       191.88708     -35692.183      199.71613      199.65719      380.83692    
      5400  -35884.9        193.25406     -35691.645      199.70344      199.64201      381.02243    
      5500  -35881.653      188.83002     -35692.823      199.69482      199.63082      381.20793    
      5600  -35878.725      186.95246     -35691.773      199.68072      199.61507      381.39343    
      5700  -35874.508      187.79508     -35686.713      199.66951      199.60229      381.57893    
      5800  -35871.618      192.21899     -35679.399      199.65757      199.58863      381.76444    
      5900  -35865.84       191.9835      -35673.857      199.64292      199.5729       381.94994    
      6000  -35862.418      190.27929     -35672.139      199.63188      199.5606       382.13544    
      6100  -35860.953      187.93063     -35673.023      199.61642      199.54308      382.32094    
      6200  -35858.389      186.81894     -35671.57       199.60456      199.52983      382.50645    
      6300  -35855.555      189.48405     -35666.071      199.58952      199.51378      382.69195    
      6400  -35852.24       193.55647     -35658.684      199.57442      199.49679      382.87745    
      6500  -35849.506      196.54255     -35652.964      199.56229      199.4837       383.06295    
      6600  -35838.889      187.5192      -35651.37       199.54358      199.46456      383.24846    
      6700  -35838.886      187.33431     -35651.552      199.53017      199.44978      383.43396    
      6800  -35838.689      189.11148     -35649.578      199.51353      199.43266      383.61946    
      6900  -35830.774      187.20907     -35643.565      199.49502      199.41423      383.80497    
      7000  -35829.535      194.00805     -35635.527      199.48077      199.39891      383.99047    
      7100  -35822.946      193.10334     -35629.842      199.46119      199.37777      384.17597    
      7200  -35818.397      190.121       -35628.276      199.44537      199.36083      384.36147    
      7300  -35816.023      187.82697     -35628.196      199.42752      199.34018      384.54698    
      7400  -35815.357      189.40249     -35625.955      199.40941      199.31885      384.73248    
      7500  -35807.117      186.43867     -35620.678      199.39284      199.29979      384.91798    
      7600  -35805.538      193.59673     -35611.941      199.37264      199.27636      385.10348    
      7700  -35797.082      190.92044     -35606.162      199.35587      199.25594      385.28899    
      7800  -35791.166      187.18777     -35603.978      199.33595      199.23359      385.47449    
      7900  -35792.143      187.54615     -35604.597      199.31527      199.2101       385.65999    
      8000  -35790.389      189.34575     -35601.044      199.29695      199.18869      385.84549    
      8100  -35781.315      186.60688     -35594.709      199.27442      199.16407      386.031      
      8200  -35777.449      190.85782     -35586.591      199.25336      199.14169      386.2165     
      8300  -35772.296      192.04543     -35580.25       199.23082      199.11778      386.402      
      8400  -35768.233      190.2319      -35578.001      199.20747      199.09415      386.5875     
      8500  -35770.168      191.35418     -35578.814      199.18344      199.06996      386.77301    
      8600  -35760.093      186.17216     -35573.921      199.15858      199.04451      386.95851    
      8700  -35755.16       188.76263     -35566.397      199.13524      199.02054      387.14401    
      8800  -35748.694      189.80955     -35558.884      199.10829      198.99255      387.32952    
      8900  -35746.187      192.69661     -35553.491      199.08461      198.96687      387.51502    
      9000  -35739.036      188.54897     -35550.487      199.05931      198.93905      387.70052    
      9100  -35739.334      187.29649     -35552.038      199.03137      198.90824      387.88602    
      9200  -35732.552      185.09715     -35547.455      199.00822      198.88117      388.07153    
      9300  -35727.715      188.82733     -35538.888      198.97927      198.84817      388.25703    
      9400  -35721.905      191.23895     -35530.666      198.95294      198.81778      388.44253    
      9500  -35712.194      188.56944     -35523.625      198.92584      198.78697      388.62803    
      9600  -35707.798      190.52122     -35517.277      198.8946       198.75211      388.81354    
      9700  -35704.325      190.69925     -35513.626      198.86763      198.72252      388.99904    
      9800  -35702.704      188.8053      -35513.899      198.83481      198.68767      389.18454    
      9900  -35698.148      188.77448     -35509.373      198.80338      198.65474      389.37004    
     10000  -35688.853      188.50741     -35500.346      198.77186      198.62246      389.55555    
     10100  -35684.174      192.59506     -35491.579      198.73628      198.58622      389.74105    
     10200  -35678.441      192.17137     -35486.269      198.70432      198.55365      389.92655    
     10300  -35674.246      191.86307     -35482.383      198.66861      198.51681      390.11206    
     10400  -35667.013      187.95266     -35479.061      198.63369      198.48052      390.29756    
     10500  -35666.877      189.49576     -35477.381      198.59951      198.44388      390.48306    
     10600  -35658.721      183.57367     -35475.147      198.56235      198.40358      390.66856    
     10700  -35653.24       188.49609     -35464.744      198.52815      198.36547      390.85407    
     10800  -35646.851      191.17602     -35455.675      198.49043      198.32361      391.03957    
     10900  -35634.662      186.85414     -35447.808      198.45403      198.28217      391.22507    
     11000  -35632.003      191.12139     -35440.881      198.41727      198.24035      391.41057    
     11100  -35626.157      189.96891     -35436.188      198.37731      198.19606      391.59608    
     11200  -35625.575      190.67553     -35434.899      198.33978      198.15415      391.78158    
     11300  -35615.78       185.09907     -35430.681      198.2984       198.10875      391.96708    
     11400  -35613.054      192.03921     -35421.015      198.25747      198.06504      392.15258    
     11500  -35600.08       189.12699     -35410.953      198.21562      198.02117      392.33809    
     11600  -35595.055      189.87486     -35405.18       198.17088      197.97468      392.52359    
     11700  -35590.204      188.35048     -35401.854      198.12822      197.93101      392.70909    
     11800  -35587.391      189.43057     -35397.961      198.08201      197.88388      392.89459    
     11900  -35580.518      188.04513     -35392.473      198.03613      197.83649      393.0801     
     12000  -35570.949      189.22832     -35381.721      197.99187      197.79027      393.2656     
     12100  -35565.735      193.5728      -35372.162      197.94317      197.73956      393.4511     
     12200  -35557.298      190.24809     -35367.05       197.89815      197.69125      393.63661    
     12300  -35556.374      191.02039     -35365.354      197.85099      197.63994      393.82211    
     12400  -35546.924      186.48644     -35360.438      197.80311      197.58731      394.00761    
     12500  -35541.413      188.58239     -35352.83       197.75771      197.53644      394.19311    
     12600  -35535.206      190.48621     -35344.72       197.70847      197.48082      394.37862    
     12700  -35526.536      189.76791     -35336.768      197.66138      197.4277       394.56412    
     12800  -35517.318      188.77099     -35328.547      197.6128       197.37297      394.74962    
     12900  -35508.565      192.70277     -35315.862      197.56298      197.31729      394.93512    
     13000  -35499.879      191.52669     -35308.352      197.51355      197.26318      395.12063    
     13100  -35499.613      192.37824     -35307.234      197.46091      197.20708      395.30613    
     13200  -35492.699      189.06106     -35303.638      197.40904      197.15257      395.49163    
     13300  -35489.628      190.95074     -35298.677      197.35533      197.09699      395.67713    
     13400  -35479.953      187.69596     -35292.257      197.30084      197.04139      395.86264    
     13500  -35472.759      190.46441     -35282.295      197.24714      196.9872       396.04814    
     13600  -35463.096      192.27969     -35270.816      197.19072      196.92984      396.23364    
     13700  -35459.889      195.27494     -35264.614      197.13704      196.87472      396.41914    
     13800  -35451.569      188.95602     -35262.613      197.08183      196.81725      396.60465    
     13900  -35446.829      190.11205     -35256.717      197.02666      196.75862      396.79015    
     14000  -35440.183      191.36061     -35248.822      196.97364      196.70138      396.97565    
     14100  -35432.654      192.92787     -35239.726      196.91814      196.64068      397.16116    
     14200  -35423.056      193.84033     -35229.215      196.86511      196.58234      397.34666    
     14300  -35413.48       193.78568     -35219.694      196.8108       196.52243      397.53216    
     14400  -35409.447      192.85145     -35216.596      196.75609      196.46189      397.71766    
     14500  -35400.189      186.45521     -35213.734      196.70303      196.4031       397.90317    
     14600  -35394.403      187.95913     -35206.444      196.64771      196.34219      398.08867    
     14700  -35386.806      190.46413     -35196.342      196.59405      196.28363      398.27417    
     14800  -35378.014      192.62826     -35185.386      196.5394       196.22433      398.45967    
     14900  -35365.578      187.98211     -35177.596      196.48406      196.16521      398.64518    
     15000  -35366.468      189.65025     -35176.817      196.4297       196.10777      398.83068    
     15100  -35357.788      187.17105     -35170.617      196.37335      196.04918      399.01618    
     15200  -35348.782      188.63992     -35160.142      196.31875      195.99251      399.20168    
     15300  -35341.404      192.86526     -35148.538      196.26329      195.93591      399.38719    
     15400  -35332.449      191.88167     -35140.568      196.20728      195.87863      399.57269    
     15500  -35322.593      187.81821     -35134.775      196.15351      195.82349      399.75819    
     15600  -35318.431      189.28493     -35129.146      196.09811      195.76631      399.9437     
     15700  -35312.804      190.623       -35122.181      196.04495      195.71092      400.1292     
     15800  -35303.349      189.59607     -35113.753      195.99199      195.65432      400.3147     
     15900  -35294.309      189.89443     -35104.415      195.94023      195.59836      400.5002     
     16000  -35283.562      188.92165     -35094.641      195.88933      195.54274      400.68571    
     16100  -35275.681      190.9157      -35084.765      195.83847      195.48664      400.87121    
     16200  -35266.768      190.77084     -35075.998      195.78967      195.43172      401.05671    
     16300  -35257.78       185.95651     -35071.824      195.73971      195.37614      401.24221    
     16400  -35256.656      189.28399     -35067.372      195.69128      195.3227       401.42772    
     16500  -35244.16       185.52046     -35058.64       195.64219      195.26916      401.61322    
     16600  -35232.692      186.7642      -35045.928      195.5935       195.21657      401.79872    
     16700  -35230.765      195.37806     -35035.387      195.54506      195.16561      401.98422    
     16800  -35218.515      190.09971     -35028.415      195.49616      195.11498      402.16973    
     16900  -35213.584      190.91319     -35022.671      195.44841      195.0658       402.35523    
     17000  -35202.831      186.06793     -35016.763      195.39997      195.01662      402.54073    
     17100  -35195.994      188.11157     -35007.882      195.35293      194.96954      402.72623    
     17200  -35185.889      192.74245     -34993.147      195.30584      194.92208      402.91174    
     17300  -35176.947      192.8474      -34984.1        195.25992      194.87524      403.09724    
     17400  -35167.915      188.48821     -34979.427      195.21509      194.82898      403.28274    
     17500  -35166.622      192.67983     -34973.942      195.17053      194.78243      403.46825    
     17600  -35152.273      186.93163     -34965.341      195.12798      194.73657      403.65375    
     17700  -35145.758      191.06088     -34954.698      195.08577      194.69047      403.83925    
     17800  -35136.412      191.31644     -34945.095      195.04509      194.6451       404.02475    
     17900  -35127.464      190.88383     -34936.581      195.00493      194.59993      404.21026    
     18000  -35118.059      189.97909     -34928.08       194.96538      194.55513      404.39576    
     18100  -35112.142      192.04075     -34920.102      194.92712      194.51199      404.58126    
     18200  -35100.584      188.454       -34912.13       194.88813      194.46868      404.76676    
     18300  -35091.2        189.03845     -34902.162      194.84997      194.42662      404.95227    
     18400  -35079.458      191.46898     -34887.989      194.81268      194.38652      405.13777    
     18500  -35072.117      193.92631     -34878.19       194.77353      194.3458       405.32327    
     18600  -35062.054      188.67959     -34873.374      194.73625      194.30814      405.50877    
     18700  -35055.068      187.49105     -34867.577      194.69793      194.27026      405.69428    
     18800  -35048.532      190.01752     -34858.514      194.66006      194.2334       405.87978    
     18900  -35037.602      189.92946     -34847.673      194.62361      194.19787      406.06528    
     19000  -35023.835      187.60067     -34836.234      194.5865       194.16135      406.25078    
     19100  -35018.324      193.92777     -34824.396      194.55187      194.12706      406.43629    
     19200  -35005.849      190.66167     -34815.187      194.51611      194.0908       406.62179    
     19300  -35004.164      192.55366     -34811.61       194.48392      194.05637      406.80729    
     19400  -34990.881      185.87658     -34805.005      194.4514       194.0206       406.9928     
     19500  -34982.49       188.11804     -34794.372      194.41986      193.98514      407.1783     
     19600  -34974.917      193.53088     -34781.386      194.39067      193.9511       407.3638     
     19700  -34962.078      192.05582     -34770.022      194.3602       193.91498      407.5493     
     19800  -34954.225      190.58556     -34763.639      194.332        193.88138      407.73481    
     19900  -34945.247      185.20112     -34760.046      194.30246      193.84717      407.92031    
     20000  -34938.323      188.60114     -34749.722      194.27341      193.81421      408.10581    
     20100  -34925.792      190.10081     -34735.691      194.2447       193.78296      408.29131    
     20200  -34915.933      191.89317     -34724.04       194.21434      193.75142      408.47682    
     20300  -34909.485      194.25342     -34715.232      194.18541      193.72277      408.66232    
     20400  -34896.685      186.80945     -34709.875      194.15489      193.69327      408.84782    
     20500  -34890.404      185.72457     -34704.679      194.12569      193.66569      409.03332    
     20600  -34882.169      188.43814     -34693.73       194.09617      193.63811      409.21883    
     20700  -34868.94       187.45685     -34681.483      194.06651      193.61022      409.40433    
     20800  -34859.483      190.53239     -34668.95       194.0388       193.58318      409.58983    
     20900  -34847.583      190.99084     -34656.592      194.01068      193.55525      409.77534    
     21000  -34836.53       190.25561     -34646.274      193.98402      193.52792      409.96084    
     21100  -34829.695      188.58852     -34641.106      193.95793      193.49927      410.14634    
     21200  -34820.799      185.80141     -34634.998      193.93322      193.47142      410.33184    
     21300  -34811.006      188.07543     -34622.93       193.9087       193.44308      410.51735    
     21400  -34799.28       189.31082     -34609.97       193.88472      193.41496      410.70285    
     21500  -34790.972      192.08263     -34598.89       193.86178      193.38739      410.88835    
     21600  -34779.096      190.09549     -34589          193.8374       193.35928      411.07385    
     21700  -34766.181      186.97394     -34579.207      193.81419      193.33326      411.25936    
     21800  -34760.757      192.55261     -34568.204      193.78944      193.30637      411.44486    
     21900  -34743.286      186.83495     -34556.451      193.76545      193.28145      411.63036    
     22000  -34737.033      190.86975     -34546.163      193.7403       193.25653      411.81586    
     22100  -34725.392      186.98794     -34538.404      193.71462      193.23231      412.00137    
     22200  -34718.937      186.41165     -34532.525      193.69061      193.20965      412.18687    
     22300  -34710.001      186.68703     -34523.314      193.66411      193.18472      412.37237    
     22400  -34698.653      190.16934     -34508.484      193.64042      193.16308      412.55787    
     22500  -34685.539      190.23304     -34495.306      193.61532      193.13927      412.74338    
     22600  -34676.546      190.47167     -34486.074      193.59124      193.11515      412.92888    
     22700  -34667.393      189.48073     -34477.913      193.56906      193.09246      413.11438    
     22800  -34658.441      188.57562     -34469.865      193.54519      193.06758      413.29989    
     22900  -34648.597      187.45978     -34461.138      193.5241       193.04399      413.48539    
     23000  -34636.231      189.10631     -34447.124      193.50228      193.01887      413.67089    
     23100  -34623.183      190.77404     -34432.409      193.48093      192.994        413.85639    
     23200  -34612.294      190.10881     -34422.185      193.46073      192.96956      414.0419     
     23300  -34605.925      191.27159     -34414.654      193.43898      192.94343      414.2274     
     23400  -34597.072      188.08293     -34408.989      193.41927      192.9199       414.4129     
     23500  -34583.646      185.36928     -34398.277      193.39734      192.89514      414.5984     
     23600  -34575.146      189.73145     -34385.415      193.3755       192.8716       414.78391    
     23700  -34561.185      188.85576     -34372.329      193.35395      192.8496       414.96941    
     23800  -34551.145      191.96449     -34359.18       193.32989      192.82638      415.15491    
     23900  -34539.348      192.35189     -34346.996      193.30772      192.8058       415.34041    
     24000  -34526.519      189.78351     -34336.736      193.28301      192.78373      415.52592    
     24100  -34518.923      187.85135     -34331.072      193.25946      192.76264      415.71142    
     24200  -34513.694      190.93061     -34322.763      193.23618      192.7417       415.89692    
     24300  -34498.369      188.37071     -34309.998      193.21162      192.71904      416.08242    
     24400  -34486.878      192.28549     -34294.593      193.19018      192.69887      416.26793    
     24500  -34476.134      193.16117     -34282.973      193.16633      192.67497      416.45343    
     24600  -34464.787      191.24724     -34273.54       193.14557      192.65308      416.63893    
     24700  -34456.922      191.56587     -34265.357      193.12465      192.62972      416.82444    
     24800  -34445.267      187.16696     -34258.1        193.10304      192.60449      417.00994    
     24900  -34432.803      181.4169      -34251.386      193.08435      192.58174      417.19544    
     25000  -34419.546      182.9607      -34236.585      193.06246      192.55549      417.38094    
     25100  -34411.15       190.26262     -34220.887      193.04343      192.5323       417.56645    
     25200  -34398.021      190.77537     -34207.246      193.02228      192.50759      417.75195    
     25300  -34385.28       191.14235     -34194.138      193.00067      192.48321      417.93745    
     25400  -34374.186      190.66096     -34183.525      192.98049      192.461        418.12295    
     25500  -34365.4        187.98353     -34177.417      192.95635      192.43628      418.30846    
     25600  -34355.125      186.27947     -34168.846      192.93533      192.41548      418.49396    
     25700  -34344.392      188.72552     -34155.666      192.91142      192.39267      418.67946    
     25800  -34331.769      189.90222     -34141.867      192.88789      192.37113      418.86496    
     25900  -34320.624      190.96054     -34129.664      192.86469      192.35032      419.05047    
     26000  -34307.972      189.89102     -34118.081      192.84012      192.32762      419.23597    
     26100  -34296.093      189.5209      -34106.572      192.81772      192.30696      419.42147    
     26200  -34284.207      190.40988     -34093.797      192.79328      192.28328      419.60698    
     26300  -34271.824      191.09526     -34080.728      192.77197      192.26157      419.79248    
     26400  -34260.173      189.9182      -34070.255      192.74914      192.23728      419.97798    
     26500  -34250.396      186.71518     -34063.681      192.7274       192.21333      420.16348    
     26600  -34243.6        189.28098     -34054.319      192.70686      192.18971      420.34899    
     26700  -34229.369      188.67704     -34040.692      192.68384      192.16347      420.53449    
     26800  -34214.236      188.16635     -34026.069      192.66434      192.14057      420.71999    
     26900  -34203.391      189.07361     -34014.317      192.64103      192.11435      420.90549    
     27000  -34192.916      189.87479     -34003.041      192.61982      192.09074      421.091      
     27100  -34185.148      192.62739     -33992.521      192.59714      192.0663       421.2765     
     27200  -34170.594      188.18826     -33982.406      192.57305      192.04141      421.462      
     27300  -34156.824      185.53824     -33971.286      192.55074      192.01937      421.6475     
     27400  -34145.905      188.80755     -33957.098      192.52536      191.99447      421.83301    
     27500  -34131.417      189.27546     -33942.142      192.50231      191.9725       422.01851    
     27600  -34122.364      191.87472     -33930.489      192.47721      191.94887      422.20401    
     27700  -34111.091      186.36853     -33924.722      192.45235      191.92543      422.38951    
     27800  -34104.763      189.66544     -33915.098      192.42883      191.90256      422.57502    
     27900  -34089.177      188.32918     -33900.848      192.40348      191.87765      422.76052    
     28000  -34074.721      188.56779     -33886.153      192.38082      191.85459      422.94602    
     28100  -34062.512      189.582       -33872.93       192.35597      191.82854      423.13153    
     28200  -34049.926      188.80077     -33861.125      192.33342      191.80374      423.31703    
     28300  -34039.989      189.07124     -33850.918      192.31006      191.77798      423.50253    
     28400  -34032.667      187.51556     -33845.151      192.28591      191.75093      423.68803    
     28500  -34020.763      185.38631     -33835.377      192.26398      191.72588      423.87354    
     28600  -34007.27       187.9839      -33819.286      192.23888      191.69818      424.05904    
     28700  -33993.091      188.93763     -33804.153      192.21606      191.67338      424.24454    
     28800  -33980.011      190.32277     -33789.688      192.19159      191.64711      424.43004    
     28900  -33967.629      191.03712     -33776.592      192.1666       191.62116      424.61555    
     29000  -33956.5        191.71768     -33764.782      192.14259      191.59709      424.80105    
     29100  -33947.511      190.69119     -33756.82       192.11499      191.5703       424.98655    
     29200  -33935.511      188.00312     -33747.508      192.09107      191.54746      425.17205    
     29300  -33922.539      189.65458     -33732.884      192.06304      191.52089      425.35756    
     29400  -33906.124      189.84412     -33716.28       192.03808      191.49706      425.54306    
     29500  -33894.825      190.7652      -33704.059      192.01137      191.47148      425.72856    
     29600  -33882.907      189.7724      -33693.135      191.9849       191.44552      425.91406    
     29700  -33871.52       188.19173     -33683.328      191.96         191.42064      426.09957    
     29800  -33859.683      184.65309     -33675.03       191.93298      191.39285      426.28507    
     29900  -33850.104      186.04551     -33664.058      191.90899      191.3677       426.47057    
     30000  -33835.055      189.05653     -33645.999      191.8824       191.33895      426.65608    
     30100  -33821.829      190.71089     -33631.119      191.8581       191.31216      426.84158    
     30200  -33809.29       191.02991     -33618.26       191.83243      191.28387      427.02708    
     30300  -33798.444      191.76787     -33606.676      191.80674      191.25566      427.21258    
     30400  -33784.752      187.91301     -33596.839      191.78165      191.22816      427.39809    
     30500  -33772.173      184.62703     -33587.546      191.75499      191.1992       427.58359    
     30600  -33763.38       188.33203     -33575.048      191.72939      191.17238      427.76909    
     30700  -33746.209      189.31186     -33556.897      191.70191      191.14456      427.95459    
     30800  -33732.101      189.55559     -33542.546      191.67454      191.11743      428.1401     
     30900  -33723.645      192.65319     -33530.992      191.64797      191.09098      428.3256     
     31000  -33709.814      187.90771     -33521.907      191.61873      191.06287      428.5111     
     31100  -33699.382      185.54779     -33513.834      191.59139      191.0374       428.6966     
     31200  -33686.769      187.05333     -33499.716      191.56195      191.0096       428.88211    
     31300  -33672.206      191.55982     -33480.646      191.53428      190.98249      429.06761    
     31400  -33660.119      192.79434     -33467.325      191.50605      190.95442      429.25311    
     31500  -33648.282      192.34596     -33455.936      191.47739      190.92561      429.43862    
     31600  -33635.445      188.92365     -33446.521      191.45101      190.8981       429.62412    
     31700  -33626.993      190.72329     -33436.269      191.42177      190.86667      429.80962    
     31800  -33611.544      190.06216     -33421.482      191.39684      190.83899      429.99512    
     31900  -33594.982      191.51782     -33403.464      191.368        190.80731      430.18063    
     32000  -33581.4        190.76901     -33390.631      191.342        190.77846      430.36613    
     32100  -33571.954      191.34573     -33380.608      191.31402      190.74763      430.55163    
     32200  -33561.424      189.17075     -33372.253      191.28614      190.71751      430.73713    
     32300  -33547.672      186.89967     -33360.772      191.25905      190.68848      430.92264    
     32400  -33531.947      191.0664      -33340.881      191.22883      190.65726      431.10814    
     32500  -33519.994      193.59143     -33326.403      191.20233      190.63045      431.29364    
     32600  -33508.041      192.64138     -33315.399      191.17048      190.59873      431.47914    
     32700  -33494.232      187.8028      -33306.429      191.14353      190.57259      431.66465    
     32800  -33484.184      189.28145     -33294.903      191.11181      190.54166      431.85015    
     32900  -33465.336      187.79413     -33277.542      191.08263      190.51379      432.03565    
     33000  -33450.139      188.84763     -33261.291      191.05316      190.48546      432.22115    
     33100  -33439.627      189.86963     -33249.757      191.02083      190.45416      432.40666    
     33200  -33430.907      191.23346     -33239.674      190.99367      190.42773      432.59216    
     33300  -33420.985      191.4706      -33229.514      190.9604       190.3946       432.77766    
     33400  -33408.233      188.01749     -33220.216      190.93344      190.36713      432.96317    
     33500  -33396.12       189.12372     -33206.997      190.90211      190.33444      433.14867    
     33600  -33378.546      190.40066     -33188.145      190.87393      190.30415      433.33417    
     33700  -33362.687      189.42099     -33173.266      190.84529      190.27286      433.51967    
     33800  -33352.428      192.42253     -33160.005      190.81517      190.23969      433.70518    
     33900  -33335.4        187.51324     -33147.886      190.78836      190.20994      433.89068    
     34000  -33327.745      190.90361     -33136.842      190.7572       190.17557      434.07618    
     34100  -33314.054      188.24615     -33125.808      190.72965      190.14582      434.26168    
     34200  -33301.893      191.90155     -33109.991      190.69875      190.11314      434.44719    
     34300  -33284.843      192.49449     -33092.349      190.66866      190.082        434.63269    
     34400  -33270.469      191.19815     -33079.271      190.639        190.05169      434.81819    
     34500  -33258.829      190.33417     -33068.494      190.60614      190.01891      435.00369    
     34600  -33244.274      184.81039     -33059.464      190.57726      189.99054      435.1892     
     34700  -33238.53       187.4303      -33051.1        190.54328      189.95765      435.3747     
     34800  -33221.78       185.47963     -33036.3        190.51307      189.92853      435.5602     
     34900  -33207.345      190.97826     -33016.366      190.4807       189.89758      435.7457     
     35000  -33192.015      191.61665     -33000.398      190.44835      189.86651      435.93121    
     35100  -33179.153      192.85627     -32986.297      190.41808      189.83708      436.11671    
     35200  -33163.82       189.51661     -32974.304      190.38444      189.8039       436.30221    
     35300  -33151.667      186.09928     -32965.568      190.35536      189.7748       436.48772    
     35400  -33142.543      188.81315     -32953.73       190.32223      189.74077      436.67322    
     35500  -33126.754      189.12573     -32937.628      190.29333      189.71021      436.85872    
     35600  -33112.67       193.84121     -32918.829      190.26222      189.67716      437.04422    
     35700  -33099.04       192.84769     -32906.192      190.23148      189.64402      437.22973    
     35800  -33085.511      189.58064     -32895.931      190.20327      189.61259      437.41523    
     35900  -33071.687      186.37159     -32885.316      190.17094      189.57684      437.60073    
     36000  -33059.076      187.40604     -32871.67       190.14348      189.54645      437.78623    
     36100  -33041.211      189.58991     -32851.621      190.11097      189.51157      437.97174    
     36200  -33028.276      190.69722     -32837.578      190.08133      189.48027      438.15724    
     36300  -33019.2        192.16923     -32827.031      190.04971      189.44724      438.34274    
     36400  -33004.531      187.39897     -32817.132      190.01778      189.41468      438.52824    
     36500  -32994.262      189.34612     -32804.916      189.98696      189.38394      438.71375    
     36600  -32976.996      189.23925     -32787.757      189.95293      189.35079      438.89925    
     36700  -32961.438      192.56576     -32768.872      189.92277      189.32142      439.08475    
     36800  -32949.351      191.75896     -32757.592      189.88823      189.28819      439.27026    
     36900  -32938.13       189.78577     -32748.345      189.85685      189.25841      439.45576    
     37000  -32923.613      187.27848     -32736.335      189.8238       189.2271       439.64126    
     37100  -32909.447      188.42018     -32721.027      189.79089      189.19519      439.82676    
     37200  -32891.806      189.99716     -32701.809      189.75994      189.16482      440.01227    
     37300  -32882.381      194.12355     -32688.257      189.72618      189.13113      440.19777    
     37400  -32868.442      191.05453     -32677.388      189.69593      189.1008       440.38327    
     37500  -32854.799      188.87223     -32665.927      189.66264      189.06635      440.56877    
     37600  -32842.427      189.58951     -32652.837      189.63282      189.03489      440.75428    
     37700  -32828.073      189.49416     -32638.579      189.60119      189.00078      440.93978    
     37800  -32810.213      191.26057     -32618.952      189.57054      188.96751      441.12528    
     37900  -32796.574      192.33474     -32604.24       189.54035      188.93467      441.31078    
     38000  -32788.062      193.03571     -32595.027      189.50865      188.90059      441.49629    
     38100  -32770.066      185.37409     -32584.692      189.47883      188.86879      441.68179    
     38200  -32761.771      190.80603     -32570.965      189.44593      188.83445      441.86729    
     38300  -32745.522      189.83678     -32555.685      189.41621      188.80394      442.05279    
     38400  -32728.046      191.05348     -32536.993      189.38275      188.77023      442.2383     
     38500  -32714.487      193.30267     -32521.185      189.35203      188.73955      442.4238     
     38600  -32702.986      191.5676      -32511.418      189.3193       188.70757      442.6093     
     38700  -32689.706      189.55226     -32500.154      189.28747      188.67632      442.79481    
     38800  -32676.17       188.72133     -32487.448      189.2555       188.64517      442.98031    
     38900  -32662.575      189.09019     -32473.485      189.22333      188.61358      443.16581    
     39000  -32647.328      189.65337     -32457.675      189.19175      188.58281      443.35131    
     39100  -32635.561      195.33054     -32440.23       189.15925      188.5511       443.53682    
     39200  -32619.98       193.95705     -32426.023      189.12802      188.51983      443.72232    
     39300  -32608.257      190.17        -32418.087      189.09612      188.48736      443.90782    
     39400  -32595.861      189.32327     -32406.538      189.06543      188.45615      444.09332    
     39500  -32575.78       184.59202     -32391.188      189.03347      188.42314      444.27883    
     39600  -32566.225      192.07368     -32374.151      189.00367      188.39178      444.46433    
     39700  -32549.091      190.67993     -32358.411      188.9724       188.35846      444.64983    
     39800  -32536.681      189.88298     -32346.798      188.94314      188.32685      444.83533    
     39900  -32526.887      188.35878     -32338.528      188.91247      188.29381      445.02084    
     40000  -32512.279      188.1374      -32324.141      188.88283      188.26214      445.20634    
     40100  -32493.427      187.72912     -32305.698      188.85219      188.22989      445.39184    
     40200  -32480.382      190.88606     -32289.496      188.82171      188.19823      445.57734    
     40300  -32465.474      189.17892     -32276.295      188.79133      188.1671       445.76285    
     40400  -32452.437      187.86832     -32264.568      188.7595       188.13546      445.94835    
     40500  -32439.057      182.55838     -32256.499      188.72931      188.10541      446.13385    
     40600  -32431.135      188.37708     -32242.758      188.69706      188.07368      446.31936    
     40700  -32416.516      191.78821     -32224.728      188.6675       188.04413      446.50486    
     40800  -32396.474      187.547       -32208.927      188.63589      188.01246      446.69036    
     40900  -32382.615      189.27756     -32193.337      188.60559      187.98242      446.87586    
     41000  -32366.434      189.13608     -32177.297      188.57488      187.95216      447.06137    
     41100  -32353.728      190.29884     -32163.429      188.54364      187.92126      447.24687    
     41200  -32343.743      189.40202     -32154.341      188.51398      187.89181      447.43237    
     41300  -32329.19       187.11213     -32142.078      188.48233      187.86039      447.61787    
     41400  -32312.754      187.81353     -32124.94       188.45372      187.83177      447.80338    
     41500  -32297.334      190.50238     -32106.832      188.42219      187.80005      447.98888    
     41600  -32285.133      192.34511     -32092.788      188.39367      187.7708       448.17438    
     41700  -32272.852      192.22093     -32080.631      188.36385      187.74044      448.35988    
     41800  -32258.246      189.46064     -32068.785      188.33489      187.71045      448.54539    
     41900  -32241.94       185.92174     -32056.018      188.30588      187.68025      448.73089    
     42000  -32229.946      190.06452     -32039.882      188.27671      187.64974      448.91639    
     42100  -32212.3        191.33235     -32020.968      188.2483       187.61999      449.1019     
     42200  -32198.63       192.49966     -32006.131      188.2193       187.58996      449.2874     
     42300  -32186.706      191.35535     -31995.351      188.18998      187.55958      449.4729     
     42400  -32175.955      191.16293     -31984.792      188.16206      187.53072      449.6584     
     42500  -32156.089      184.99211     -31971.096      188.13209      187.50025      449.84391    
     42600  -32140.305      186.77651     -31953.529      188.10441      187.47217      450.02941    
     42700  -32128.275      195.56013     -31932.714      188.07441      187.44202      450.21491    
     42800  -32115.187      194.43377     -31920.754      188.04705      187.41405      450.40041    
     42900  -32099.968      189.00889     -31910.959      188.01796      187.38442      450.58592    
     43000  -32085.176      186.05951     -31899.116      187.99003      187.35607      450.77142    
     43100  -32070.855      186.44129     -31884.414      187.96177      187.32746      450.95692    
     43200  -32058.048      192.79469     -31865.254      187.93297      187.29877      451.14242    
     43300  -32038.434      190.23474     -31848.199      187.90502      187.27097      451.32793    
     43400  -32028.143      191.84913     -31836.294      187.8762       187.24195      451.51343    
     43500  -32014.195      189.34924     -31824.846      187.8485       187.21468      451.69893    
     43600  -32004.395      192.59678     -31811.798      187.82005      187.18643      451.88443    
     43700  -31988.598      190.40408     -31798.194      187.79212      187.15871      452.06994    
     43800  -31972.718      189.63853     -31783.079      187.7643       187.13079      452.25544    
     43900  -31957.228      193.01415     -31764.213      187.7365       187.10313      452.44094    
     44000  -31941.426      192.8317      -31748.594      187.70902      187.07573      452.62645    
     44100  -31927.767      189.53354     -31738.234      187.68122      187.04789      452.81195    
     44200  -31917.138      189.71165     -31727.427      187.65434      187.02055      452.99745    
     44300  -31900.533      187.23149     -31713.301      187.62717      186.99285      453.18295    
     44400  -31884.942      188.14777     -31696.794      187.60073      186.96541      453.36846    
     44500  -31872.354      192.80501     -31679.549      187.57384      186.93769      453.55396    
     44600  -31852.176      193.12532     -31659.051      187.5485       186.91127      453.73946    
     44700  -31837.204      191.34865     -31645.855      187.5216       186.88286      453.92496    
     44800  -31829.973      193.99595     -31635.977      187.49709      186.85664      454.11047    
     44900  -31811.277      187.04761     -31624.23       187.46974      186.82813      454.29597    
     45000  -31800.395      188.38252     -31612.012      187.44573      186.80303      454.48147    
     45100  -31787.119      188.50532     -31598.613      187.41795      186.77455      454.66697    
     45200  -31769.307      188.57469     -31580.732      187.39341      186.74924      454.85248    
     45300  -31753.8        191.65843     -31562.142      187.36686      186.72221      455.03798    
     45400  -31740.471      190.98382     -31549.487      187.34098      186.69609      455.22348    
     45500  -31728.047      189.87137     -31538.176      187.31522      186.67064      455.40898    
     45600  -31713.575      188.96743     -31524.607      187.28818      186.64415      455.59449    
     45700  -31700.521      190.59711     -31509.924      187.26401      186.6206       455.77999    
     45800  -31681.389      186.71048     -31494.679      187.23614      186.59329      455.96549    
     45900  -31669.412      190.74073     -31478.671      187.2124       186.57008      456.151      
     46000  -31654.222      192.40593     -31461.816      187.18507      186.54344      456.3365     
     46100  -31640.661      192.7917      -31447.869      187.16092      186.52004      456.522      
     46200  -31625.572      187.63713     -31437.935      187.13426      186.49393      456.7075     
     46300  -31615.208      190.34528     -31424.862      187.10977      186.46928      456.89301    
     46400  -31599.331      190.49009     -31408.841      187.08501      186.44422      457.07851    
     46500  -31583.496      194.27284     -31389.223      187.05977      186.41833      457.26401    
     46600  -31564.909      193.60176     -31371.307      187.0365       186.39434      457.44951    
     46700  -31551.783      191.87409     -31359.909      187.01118      186.36764      457.63502    
     46800  -31536.271      187.91952     -31348.352      186.98858      186.34371      457.82052    
     46900  -31524.484      187.93718     -31336.547      186.96351      186.31721      458.00602    
     47000  -31513.574      190.49274     -31323.082      186.9407       186.293        458.19152    
     47100  -31494.591      187.84016     -31306.751      186.91626      186.26788      458.37703    
     47200  -31479.529      192.96978     -31286.56       186.89241      186.24383      458.56253    
     47300  -31464.555      192.28563     -31272.269      186.86798      186.21931      458.74803    
     47400  -31452.184      190.3583      -31261.826      186.8443       186.19548      458.93354    
     47500  -31438.951      190.50492     -31248.446      186.82056      186.17198      459.11904    
     47600  -31424.855      190.64956     -31234.205      186.79639      186.14811      459.30454    
     47700  -31410.759      191.79814     -31218.961      186.77305      186.12516      459.49004    
     47800  -31394.898      192.09392     -31202.805      186.74882      186.10129      459.67555    
     47900  -31377.612      191.441       -31186.171      186.7263       186.07865      459.86105    
     48000  -31365.709      193.7729      -31171.936      186.70228      186.05447      460.04655    
     48100  -31347.624      186.02542     -31161.599      186.67939      186.03111      460.23205    
     48200  -31337.255      188.98864     -31148.267      186.65615      186.0076       460.41756    
     48300  -31320.499      188.58876     -31131.91       186.63309      185.9844       460.60306    
     48400  -31303.721      193.20296     -31110.518      186.61028      185.96105      460.78856    
     48500  -31287.985      192.15746     -31095.828      186.58721      185.93732      460.97406    
     48600  -31273.49       189.08759     -31084.402      186.56526      185.91478      461.15957    
     48700  -31260.731      188.45112     -31072.28       186.54201      185.89095      461.34507    
     48800  -31249.649      190.0835      -31059.566      186.52029      185.86837      461.53057    
     48900  -31235.194      190.2286      -31044.965      186.49768      185.84511      461.71607    
     49000  -31216.693      191.60584     -31025.087      186.47551      185.8223       461.90158    
     49100  -31198.55       191.75736     -31006.792      186.45365      185.80008      462.08708    
     49200  -31186.008      190.85019     -30995.158      186.43035      185.77646      462.27258    
     49300  -31172.499      188.93152     -30983.567      186.40921      185.75534      462.45809    
     49400  -31159.528      189.66721     -30969.861      186.38504      185.73153      462.64359    
     49500  -31144.981      189.72682     -30955.254      186.36453      185.7115       462.82909    
     49600  -31131.082      189.16951     -30941.913      186.34         185.68754      463.01459    
     49700  -31118.063      188.08002     -30929.983      186.31937      185.66723      463.2001     
     49800  -31101.446      186.48645     -30914.96       186.29571      185.64377      463.3856     
     49900  -31086.606      191.92397     -30894.682      186.27471      185.62334      463.5711     
     50000  -31069.997      192.22346     -30877.774      186.25154      185.6007       463.7566     
     50100  -31055.257      191.25373     -30864.003      186.22967      185.57935      463.94211    
     50200  -31039.487      187.66612     -30851.821      186.20838      185.55815      464.12761    
     50300  -31027.732      190.14914     -30837.582      186.1858       185.53566      464.31311    
     50400  -31012.374      189.81791     -30822.556      186.16529      185.51476      464.49861    
     50500  -30996.51       189.79148     -30806.719      186.14307      185.49183      464.68412    
     50600  -30980.798      189.97975     -30790.819      186.12365      185.47116      464.86962    
     50700  -30970.007      192.15449     -30777.853      186.1021       185.4477       465.05512    
     50800  -30955.725      189.51019     -30766.215      186.08304      185.42615      465.24062    
     50900  -30938.649      187.38216     -30751.267      186.06226      185.40328      465.42613    
     51000  -30923.794      192.17405     -30731.62       186.04197      185.38128      465.61163    
     51100  -30905.081      192.37299     -30712.708      186.02151      185.35966      465.79713    
     51200  -30888.757      189.33053     -30699.427      185.99964      185.33723      465.98264    
     51300  -30877.268      190.58836     -30686.679      185.98013      185.31745      466.16814    
     51400  -30865.507      191.28387     -30674.224      185.95741      185.29516      466.35364    
     51500  -30850.93       190.16489     -30660.766      185.9372       185.27607      466.53914    
     51600  -30837.008      191.17508     -30645.833      185.91394      185.25459      466.72465    
     51700  -30818.599      193.36149     -30625.238      185.89367      185.23606      466.91015    
     51800  -30802.349      195.2882      -30607.061      185.871        185.21508      467.09565    
     51900  -30787.262      191.01523     -30596.247      185.84965      185.19527      467.28115    
     52000  -30772.761      188.846       -30583.915      185.82832      185.17559      467.46666    
     52100  -30759.287      188.59459     -30570.693      185.80646      185.15514      467.65216    
     52200  -30746.605      190.29042     -30556.315      185.78626      185.13556      467.83766    
     52300  -30730.047      188.03863     -30542.009      185.76435      185.11346      468.02316    
     52400  -30715.465      189.39183     -30526.074      185.74535      185.09368      468.20867    
     52500  -30695.967      188.20522     -30507.762      185.72454      185.07137      468.39417    
     52600  -30683.654      192.28529     -30491.369      185.70541      185.05119      468.57967    
     52700  -30669.029      188.94587     -30480.083      185.68465      185.02914      468.76518    
     52800  -30655.331      187.7214      -30467.61       185.6654       185.00848      468.95068    
     52900  -30639.951      188.20075     -30451.75       185.64555      184.98685      469.13618    
     53000  -30625.892      191.01648     -30434.876      185.62587      184.96542      469.32168    
     53100  -30610.152      191.52855     -30418.623      185.60603      184.94435      469.50719    
     53200  -30596.544      189.93077     -30406.614      185.58608      184.92367      469.69269    
     53300  -30583.565      187.53495     -30396.03       185.56656      184.90345      469.87819    
     53400  -30565.506      186.63833     -30378.867      185.54566      184.88257      470.06369    
     53500  -30549.895      190.88105     -30359.014      185.52662      184.8631       470.2492     
     53600  -30532.456      190.99543     -30341.461      185.50571      184.84208      470.4347     
     53700  -30516.569      188.77738     -30327.792      185.48653      184.8233       470.6202     
     53800  -30507.611      190.15545     -30317.455      185.46484      184.80268      470.8057     
     53900  -30490.82       189.33671     -30301.484      185.4449       184.78403      470.99121    
     54000  -30474.032      190.09312     -30283.939      185.42364      184.76381      471.17671    
     54100  -30458.338      191.83807     -30266.5        185.40327      184.74436      471.36221    
     54200  -30441.539      189.68414     -30251.855      185.3825       184.72449      471.54771    
     54300  -30428.309      186.33843     -30241.971      185.36198      184.70525      471.73322    
     54400  -30415.719      188.32548     -30227.393      185.34177      184.68567      471.91872    
     54500  -30399.27       188.54113     -30210.729      185.32155      184.66549      472.10422    
     54600  -30382.213      190.74829     -30191.464      185.30214      184.64545      472.28973    
     54700  -30364.894      192.76304     -30172.131      185.28203      184.62469      472.47523    
     54800  -30351.42       191.70785     -30159.713      185.26335      184.60526      472.66073    
     54900  -30338.248      189.26091     -30148.987      185.24263      184.58377      472.84623    
     55000  -30323.469      188.44714     -30135.022      185.22486      184.56481      473.03174    
     55100  -30308.304      188.06622     -30120.238      185.20387      184.54232      473.21724    
     55200  -30294.141      189.73301     -30104.408      185.18651      184.52334      473.40274    
     55300  -30280.768      191.74424     -30089.023      185.1655       184.50121      473.58824    
     55400  -30264.487      189.40499     -30075.082      185.14743      184.48202      473.77375    
     55500  -30250.063      190.16295     -30059.9        185.12737      184.46088      473.95925    
     55600  -30231.373      188.13842     -30043.235      185.10815      184.44043      474.14475    
     55700  -30218.883      193.62412     -30025.259      185.08918      184.4201       474.33025    
     55800  -30199.694      189.47411     -30010.22       185.06863      184.39893      474.51576    
     55900  -30188.125      189.36005     -29998.765      185.05013      184.3803       474.70126    
     56000  -30170.978      186.3376      -29984.641      185.02863      184.35927      474.88676    
     56100  -30159.177      191.2033      -29967.974      185.00994      184.34109      475.07226    
     56200  -30136.084      186.98919     -29949.095      184.98813      184.32001      475.25777    
     56300  -30124.401      196.19572     -29928.205      184.96889      184.3021       475.44327    
     56400  -30109.81       193.83893     -29915.971      184.94785      184.28239      475.62877    
     56500  -30095.383      191.85695     -29903.526      184.92773      184.26345      475.81428    
     56600  -30080.136      190.75481     -29889.381      184.90793      184.24468      475.99978    
     56700  -30065.327      189.53567     -29875.791      184.88696      184.22431      476.18528    
     56800  -30052.595      191.01153     -29861.583      184.86826      184.20622      476.37078    
     56900  -30035.424      188.40883     -29847.016      184.84622      184.18465      476.55629    
     57000  -30021.678      187.1336      -29834.544      184.82809      184.16666      476.74179    
     57100  -30004.832      186.48463     -29818.347      184.8066       184.14501      476.92729    
     57200  -29988.486      191.5733      -29796.913      184.78845      184.12607      477.11279    
     57300  -29971.902      193.20766     -29778.694      184.76817      184.10441      477.2983     
     57400  -29956.822      192.56042     -29764.262      184.7498       184.08428      477.4838     
     57500  -29940.535      190.40359     -29750.132      184.73116      184.06392      477.6693     
     57600  -29926.306      190.65773     -29735.648      184.71111      184.04232      477.8548     
     57700  -29911.381      190.90293     -29720.478      184.6934       184.02328      478.04031    
     57800  -29894.454      187.38921     -29707.064      184.67256      184.00113      478.22581    
     57900  -29881.787      186.42077     -29695.366      184.65431      183.98218      478.41131    
     58000  -29868.162      185.91674     -29682.245      184.63336      183.96124      478.59682    
     58100  -29850.723      189.20213     -29661.521      184.61375      183.94222      478.78232    
     58200  -29832.417      192.2253      -29640.192      184.59307      183.92209      478.96782    
     58300  -29817.173      192.70022     -29624.473      184.57227      183.90193      479.15332    
     58400  -29803.849      191.5995      -29612.25       184.5526       183.88338      479.33883    
     58500  -29788.176      189.39863     -29598.778      184.53113      183.86352      479.52433    
     58600  -29771.606      189.16161     -29582.445      184.51081      183.84493      479.70983    
     58700  -29754.155      189.35077     -29564.805      184.48916      183.82474      479.89533    
     58800  -29738.712      191.08283     -29547.629      184.46907      183.80621      480.08084    
     58900  -29724.051      190.3858      -29533.666      184.44791      183.78674      480.26634    
     59000  -29709.317      188.79882     -29520.518      184.42718      183.76689      480.45184    
     59100  -29693.882      189.06679     -29504.815      184.40763      183.74731      480.63734    
     59200  -29675.795      188.50594     -29487.289      184.38741      183.7268       480.82285    
     59300  -29661.105      193.00525     -29468.1        184.36811      183.70736      481.00835    
     59400  -29641.801      192.94691     -29448.854      184.34765      183.68575      481.19385    
     59500  -29628.534      193.19257     -29435.341      184.3295       183.66604      481.37935    
     59600  -29610.866      188.1305      -29422.735      184.30926      183.64358      481.56486    
     59700  -29597.715      190.07067     -29407.644      184.29147      183.62407      481.75036    
     59800  -29583.15       190.1438      -29393.006      184.27108      183.60181      481.93586    
     59900  -29566.311      188.01042     -29378.301      184.25243      183.58132      482.12137    
     60000  -29552.596      187.87283     -29364.723      184.23293      183.55988      482.30687    
     60100  -29539.405      187.51704     -29351.888      184.21323      183.53885      482.49237    
     60200  -29519.634      187.54623     -29332.088      184.19416      183.51879      482.67787    
     60300  -29500.566      191.94061     -29308.625      184.17283      183.49726      482.86338    
     60400  -29485.317      192.86014     -29292.457      184.15391      183.47807      483.04888    
     60500  -29469.13       189.8875      -29279.243      184.13241      183.45702      483.23438    
     60600  -29454.463      189.46956     -29264.994      184.1123       183.4382       483.41988    
     60700  -29438.66       190.27075     -29248.389      184.09053      183.41818      483.60539    
     60800  -29423.478      191.51375     -29231.964      184.06913      183.39831      483.79089    
     60900  -29407.79       188.29088     -29219.499      184.04906      183.37994      483.97639    
     61000  -29389.54       185.59306     -29203.947      184.0261       183.35895      484.16189    
     61100  -29377.06       192.89565     -29184.164      184.00652      183.34097      484.3474     
     61200  -29357.734      194.67655     -29163.058      183.9838       183.31958      484.5329     
     61300  -29337.724      195.50514     -29142.219      183.96334      183.30023      484.7184     
     61400  -29319.991      193.80119     -29126.19       183.94261      183.28004      484.9039     
     61500  -29305.443      190.84796     -29114.595      183.92126      183.25864      485.08941    
     61600  -29288.964      188.13623     -29100.828      183.90238      183.23954      485.27491    
     61700  -29273.001      186.56653     -29086.434      183.88032      183.21676      485.46041    
     61800  -29262.914      193.03585     -29069.878      183.86202      183.19726      485.64592    
     61900  -29242.008      189.04675     -29052.961      183.84127      183.17487      485.83142    
     62000  -29226.9        189.43782     -29037.462      183.82182      183.15372      486.01692    
     62100  -29209.911      187.5971      -29022.313      183.80266      183.13265      486.20242    
     62200  -29193.058      187.73128     -29005.327      183.7825       183.10999      486.38793    
     62300  -29174.557      189.54907     -28985.008      183.76407      183.08945      486.57343    
     62400  -29154.331      191.64273     -28962.688      183.74211      183.06602      486.75893    
     62500  -29137.614      194.25854     -28943.355      183.72379      183.04624      486.94443    
     62600  -29122.816      191.59806     -28931.218      183.70238      183.02343      487.12994    
     62700  -29106.654      191.02075     -28915.633      183.68243      183.00308      487.31544    
     62800  -29094.736      193.75791     -28900.978      183.66151      182.9827       487.50094    
     62900  -29072.956      187.94811     -28885.008      183.63979      182.96112      487.68644    
     63000  -29056.174      188.4959      -28867.678      183.6199       182.94193      487.87195    
     63100  -29039.585      188.57668     -28851.008      183.59713      182.92063      488.05745    
     63200  -29022.771      185.64987     -28837.121      183.57617      182.90126      488.24295    
     63300  -29011.011      191.67054     -28819.341      183.55445      182.88051      488.42846    
     63400  -28986.534      188.59592     -28797.938      183.5325       182.86022      488.61396    
     63500  -28967.195      192.29291     -28774.902      183.51123      182.84043      488.79946    
     63600  -28945.954      194.31238     -28751.642      183.4884       182.81891      488.98496    
     63700  -28932.887      194.1722      -28738.715      183.46794      182.79942      489.17047    
     63800  -28914.21       191.2828      -28722.927      183.44588      182.77787      489.35597    
     63900  -28900.322      191.53377     -28708.788      183.42515      182.75776      489.54147    
     64000  -28886.001      192.88281     -28693.119      183.40418      182.73699      489.72697    
     64100  -28865.244      188.78919     -28676.455      183.3819       182.71478      489.91248    
     64200  -28848.126      189.34009     -28658.786      183.36225      182.69473      490.09798    
     64300  -28831.308      189.74969     -28641.558      183.3403       182.67197      490.28348    
     64400  -28814.727      189.09103     -28625.636      183.32032      182.65095      490.46898    
     64500  -28797.15       186.41948     -28610.73       183.29988      182.62916      490.65449    
     64600  -28776.26       186.76637     -28589.494      183.27919      182.60664      490.83999    
     64700  -28760.048      193.37929     -28566.669      183.25942      182.58538      491.02549    
     64800  -28737.381      190.74622     -28546.635      183.2382       182.56273      491.21099    
     64900  -28720.631      192.02904     -28528.602      183.21861      182.54154      491.3965     
     65000  -28700.297      190.08117     -28510.216      183.19734      182.51894      491.582      
     65100  -28685.428      193.04353     -28492.385      183.17706      182.49766      491.7675     
     65200  -28663.905      189.12698     -28474.778      183.15609      182.47586      491.95301    
     65300  -28648.692      191.42978     -28457.262      183.13493      182.45408      492.13851    
     65400  -28630.334      192.19608     -28438.138      183.11386      182.43299      492.32401    
     65500  -28611.716      192.62334     -28419.092      183.09239      182.41185      492.50951    
     65600  -28592.438      191.82922     -28400.609      183.07073      182.3907       492.69502    
     65700  -28572.196      190.40757     -28381.788      183.04855      182.37016      492.88052    
     65800  -28552.152      189.48767     -28362.665      183.02664      182.34973      493.06602    
     65900  -28532.901      189.42273     -28343.478      183.00432      182.329        493.25152    
     66000  -28513.949      189.44077     -28324.508      182.98225      182.30852      493.43703    
     66100  -28496.747      191.5735      -28305.173      182.96037      182.28814      493.62253    
     66200  -28477.544      191.11342     -28286.431      182.93835      182.2674       493.80803    
     66300  -28457.3        190.24096     -28267.059      182.91632      182.24661      493.99353    
     66400  -28440.249      192.38423     -28247.864      182.89502      182.22591      494.17904    
     66500  -28421.281      193.64269     -28227.639      182.8729       182.2038       494.36454    
     66600  -28399.89       192.02781     -28207.862      182.85226      182.18312      494.55004    
     66700  -28378.561      190.71435     -28187.847      182.83091      182.16095      494.73554    
     66800  -28360.928      192.23402     -28168.694      182.80978      182.13866      494.92105    
     66900  -28338.703      189.23093     -28149.472      182.79012      182.11764      495.10655    
     67000  -28320.189      190.48439     -28129.704      182.76824      182.09391      495.29205    
     67100  -28302.787      192.4466      -28110.34       182.74907      182.07285      495.47756    
     67200  -28279.638      189.28514     -28090.352      182.72814      182.05051      495.66306    
     67300  -28262.119      192.42432     -28069.694      182.70735      182.02799      495.84856    
     67400  -28239.292      190.13405     -28049.158      182.68735      182.0067       496.03406    
     67500  -28217.455      188.52639     -28028.929      182.666        181.9846       496.21957    
     67600  -28199.985      191.78032     -28008.204      182.64504      181.96321      496.40507    
     67700  -28181.509      193.3078      -27988.201      182.62356      181.94197      496.59057    
     67800  -28157.631      189.67093     -27967.96       182.60185      181.92085      496.77607    
     67900  -28140.55       192.43483     -27948.116      182.58047      181.90033      496.96158    
     68000  -28118.432      191.05029     -27927.382      182.55846      181.87947      497.14708    
     68100  -28101.027      193.79053     -27907.237      182.53639      181.85894      497.33258    
     68200  -28077.57       191.44452     -27886.126      182.51447      181.8385       497.51808    
     68300  -28057.732      192.57172     -27865.16       182.49254      181.81798      497.70359    
     68400  -28038.449      195.14302     -27843.306      182.47085      181.79753      497.88909    
[...]
     81600  -35558.863      227.74195     -35331.121      180.59611      180.03669      522.37544    
     81700  -35642.765      220.3046      -35422.46       180.60183      180.04577      522.56094    
     81800  -35717.775      213.0612      -35504.714      180.60783      180.05512      522.74644    
     81900  -35783.873      206.13519     -35577.738      180.61419      180.06483      522.93195    
     82000  -35840.812      199.56472     -35641.247      180.62096      180.07495      523.11745    
     82100  -35888.259      193.48787     -35694.771      180.62815      180.08547      523.30295    
     82200  -35925.801      188.25281     -35737.548      180.63585      180.09652      523.48845    
     82300  -35954.318      185.52559     -35768.793      180.64367      180.10761      523.67396    
     82400  -35974.473      185.24787     -35789.225      180.65151      180.11876      523.85946    
     82500  -35985.98       185.46751     -35800.513      180.65951      180.13022      524.04496    
     82600  -35988.575      185.03378     -35803.541      180.66766      180.14185      524.23046    
     82700  -35981.599      183.98061     -35797.618      180.6756       180.15335      524.41597    
     82800  -35963.663      182.42193     -35781.241      180.68315      180.16444      524.60147    
     82900  -35933.296      179.83782     -35753.458      180.69035      180.17526      524.78697    
     83000  -35890.234      175.29895     -35714.935      180.6974       180.18597      524.97248    
     83100  -35836.148      168.527       -35667.621      180.70432      180.19663      525.15798    
     83200  -35770.189      156.10878     -35614.08       180.71091      180.20703      525.34348    
     83300  -35694.097      137.30005     -35556.797      180.71746      180.2174       525.52898    
     83400  -35612.403      111.96333     -35500.44       180.72401      180.22762      525.71449    
     83500  -35534.039      82.411122     -35451.628      180.73016      180.23685      525.89999    
     83600  -35472.949      58.065946     -35414.883      180.7358       180.24437      526.08549    
     83700  -35440.881      55.270136     -35385.61       180.74084      180.24955      526.27099    
     83800  -35446.956      98.06304      -35348.893      180.74513      180.25191      526.4565     
     83900  -35517.833      238.7368      -35279.096      180.73875      180.2437       526.642      
     84000  -35590.395      262.43903     -35327.956      180.75437      180.26305      526.8275     
     84100  -35652.918      211.08138     -35441.836      180.75808      180.27536      527.013      
     84200  -35695.811      186.46165     -35509.349      180.76166      180.29117      527.19851    
     84300  -35724.913      180.21244     -35544.701      180.76696      180.31248      527.38401    
     84400  -35748.653      187.05709     -35561.596      180.77088      180.33188      527.56951    
     84500  -35767.901      193.93239     -35573.969      180.77247      180.35038      527.75502    
     84600  -35789.052      196.56743     -35592.484      180.7722       180.37018      527.94052    
     84700  -35820.56       198.69365     -35621.867      180.7778       180.38791      528.12602    
     84800  -35851.081      190.62258     -35660.458      180.78391      180.40105      528.31152    
     84900  -35861.299      173.89374     -35687.405      180.79083      180.41129      528.49703    
     85000  -35862.643      175.90731     -35686.736      180.79864      180.42477      528.68253    
     85100  -35854.333      190.91025     -35663.423      180.80294      180.43474      528.86803    
     85200  -35842.722      200.52283     -35642.199      180.80547      180.44887      529.05353    
     85300  -35827.116      187.00287     -35640.113      180.8096       180.46353      529.23904    
     85400  -35828.176      190.96695     -35637.209      180.81247      180.47727      529.42454    
     85500  -35820.512      185.80255     -35634.709      180.81505      180.49224      529.61004    
     85600  -35800.957      175.96862     -35624.989      180.81978      180.50693      529.79554    
     85700  -35780.173      183.58272     -35596.59       180.82382      180.51904      529.98105    
     85800  -35746.86       187.30803     -35559.552      180.83191      180.5339       530.16655    
     85900  -35719.069      196.29896     -35522.77       180.83495      180.54826      530.35205    
     86000  -35717.673      215.46924     -35502.204      180.83922      180.56528      530.53755    
     86100  -35734.274      203.9398      -35530.334      180.84431      180.58219      530.72306    
     86200  -35762.171      188.25772     -35573.913      180.84702      180.59558      530.90856    
     86300  -35774.495      175.58785     -35598.907      180.85532      180.61462      531.09406    
     86400  -35779.695      182.85012     -35596.845      180.86639      180.63034      531.27957    
     86500  -35782.368      200.39161     -35581.976      180.87775      180.64228      531.46507    
     86600  -35795.39       207.43207     -35587.957      180.89013      180.65631      531.65057    
     86700  -35822.526      196.90854     -35625.617      180.89695      180.66803      531.83607    
     86800  -35845.71       183.33277     -35662.377      180.90145      180.6855       532.02158    
     86900  -35859.121      176.7456      -35682.376      180.9044       180.70834      532.20708    
     87000  -35859.902      180.9226      -35678.98       180.90439      180.7298       532.39258    
     87100  -35855.91       196.6893      -35659.221      180.90635      180.75222      532.57808    
     87200  -35847.707      199.02513     -35648.681      180.90983      180.77487      532.76359    
     87300  -35845.043      189.48921     -35655.554      180.91132      180.79371      532.94909    
     87400  -35841.287      179.36535     -35661.922      180.91912      180.81443      533.13459    
     87500  -35828.242      177.99351     -35650.248      180.927        180.83004      533.32009    
     87600  -35801.237      181.98505     -35619.252      180.93395      180.84436      533.5056     
     87700  -35769.622      188.68389     -35580.938      180.94731      180.86295      533.6911     
     87800  -35743.768      197.72183     -35546.046      180.95649      180.87696      533.8766     
     87900  -35726.332      199.67557     -35526.657      180.96496      180.89228      534.0621     
     88000  -35723.396      197.31013     -35526.086      180.9767       180.91342      534.24761    
     88100  -35721.164      186.28368     -35534.881      180.98378      180.9335       534.43311    
     88200  -35723.858      183.89844     -35539.96       180.98698      180.95505      534.61861    
     88300  -35729.894      191.79471     -35538.099      180.994        180.98138      534.80412    
     88400  -35737.671      196.38919     -35541.281      180.99446      181.00292      534.98962    
     88500  -35752.196      195.60605     -35556.59       180.99756      181.0259       535.17512    
     88600  -35780.569      196.67388     -35583.895      181.00185      181.05232      535.36062    
     88700  -35795.898      181.12858     -35614.77       181.00036      181.07521      535.54613    
     88800  -35810.394      182.48227     -35627.912      180.99993      181.09872      535.73163    
     88900  -35817.359      190.34323     -35627.016      180.99746      181.1202       535.91713    
     89000  -35821.935      195.28436     -35626.65       180.99362      181.13642      536.10263    
     89100  -35829.382      194.27331     -35635.109      180.99378      181.15254      536.28814    
     89200  -35825.512      181.37199     -35644.14       180.99331      181.16153      536.47364    
     89300  -35820.278      181.28746     -35638.99       180.99701      181.1705       536.65914    
     89400  -35813.243      193.67553     -35619.567      181.00167      181.17823      536.84464    
     89500  -35806.521      199.89479     -35606.626      181.00659      181.18477      537.03015    
     89600  -35802.963      192.10475     -35610.858      181.01521      181.1946       537.21565    
     89700  -35793.938      177.95326     -35615.985      181.01956      181.20559      537.40115    
     89800  -35777.546      175.90231     -35601.643      181.02428      181.22374      537.58666    
     89900  -35762.967      191.73058     -35571.237      181.02594      181.24529      537.77216    
     90000  -35754.174      203.85862     -35550.315      181.0227       181.26648      537.95766    
     90100  -35757.515      199.29104     -35558.224      181.02126      181.29816      538.14316    
     90200  -35769.839      187.7688      -35582.07       181.01291      181.32827      538.32867    
     90300  -35782.534      182.91407     -35599.62       181.00406      181.36262      538.51417    
     90400  -35791.249      188.43651     -35602.813      180.99621      181.39692      538.69967    
     90500  -35791.426      190.43747     -35600.988      180.98917      181.42513      538.88517    
     90600  -35804.515      197.88505     -35606.63       180.98823      181.45558      539.07068    
     90700  -35819.001      193.77335     -35625.227      180.98843      181.47875      539.25618    
     90800  -35828.048      182.06016     -35645.988      180.99422      181.49996      539.44168    
     90900  -35839.148      184.36129     -35654.787      181.00293      181.51914      539.62718    
     91000  -35838.562      186.65169     -35651.911      181.00736      181.53494      539.81269    
     91100  -35834.365      191.07652     -35643.289      181.01407      181.55505      539.99819    
     91200  -35828.681      193.43866     -35635.242      181.01752      181.57555      540.18369    
     91300  -35823.675      191.09718     -35632.578      181.0199       181.59612      540.36919    
     91400  -35821.145      188.8479      -35632.297      181.02234      181.62101      540.5547     
     91500  -35808.843      181.84653     -35626.996      181.02011      181.6478       540.7402     
     91600  -35801.273      188.76566     -35612.508      181.01655      181.67948      540.9257     
     91700  -35783.704      189.82543     -35593.878      181.01107      181.71624      541.11121    
     91800  -35765.453      189.88763     -35575.566      181.00288      181.75322      541.29671    
     91900  -35751.572      193.67136     -35557.901      180.99777      181.79341      541.48221    
     92000  -35747.557      197.92406     -35549.633      180.99244      181.83288      541.66771    
     92100  -35757.426      197.50277     -35559.924      180.98903      181.87153      541.85322    
     92200  -35769.88       186.80415     -35583.076      180.98882      181.90797      542.03872    
     92300  -35780.664      183.06103     -35597.603      180.99244      181.9391       542.22422    
     92400  -35783.965      188.12341     -35595.841      181.00148      181.96742      542.40972    
     92500  -35785.526      197.15351     -35588.372      181.01485      181.99267      542.59523    
     92600  -35792.247      197.58823     -35594.659      181.03028      182.01551      542.78073    
     92700  -35809.001      192.29374     -35616.708      181.04577      182.03798      542.96623    
     92800  -35817.251      181.31288     -35635.938      181.05847      182.05991      543.15173    
     92900  -35814.966      177.76019     -35637.206      181.06567      182.08185      543.33724    
     93000  -35807.683      188.98403     -35618.699      181.0671       182.10386      543.52274    
     93100  -35796.912      197.93224     -35598.979      181.06321      182.12829      543.70824    
     93200  -35793.926      199.8402      -35594.086      181.05538      182.15509      543.89374    
     93300  -35798.057      192.65897     -35605.398      181.03999      182.18407      544.07925    
     93400  -35802.215      183.05508     -35619.16       181.02128      182.21632      544.26475    
     93500  -35802.572      181.08227     -35621.49       181.00065      182.24895      544.45025    
     93600  -35796.124      186.96252     -35609.162      180.97997      182.27961      544.63576    
     93700  -35793.726      201.14312     -35592.582      180.96643      182.31035      544.82126    
     93800  -35791.904      200.61314     -35591.291      180.95671      182.33967      545.00676    
     93900  -35800.337      193.03589     -35607.301      180.95418      182.37047      545.19226    
     94000  -35807.031      182.5164      -35624.514      180.95899      182.40175      545.37777    
     94100  -35810.871      182.63268     -35628.238      180.96752      182.43094      545.56327    
     94200  -35805.255      187.78876     -35617.466      180.98122      182.46184      545.74877    
     94300  -35801.297      196.19189     -35605.105      180.99573      182.4928       545.93427    
     94400  -35803.968      197.39768     -35606.57       181.00782      182.52748      546.11978    
     94500  -35812.016      190.04219     -35621.974      181.01729      182.56707      546.30528    
     94600  -35820.142      183.87866     -35636.263      181.02194      182.60727      546.49078    
     94700  -35822.651      183.48747     -35639.163      181.02398      182.65279      546.67628    
     94800  -35819.926      189.83086     -35630.095      181.02154      182.70071      546.86179    
     94900  -35816.398      196.4853      -35619.913      181.01241      182.74886      547.04729    
     95000  -35812.445      192.15212     -35620.293      181.00122      182.79738      547.23279    
     95100  -35815.429      186.53482     -35628.895      180.98926      182.84491      547.4183     
     95200  -35812.349      181.63509     -35630.714      180.97609      182.88988      547.6038     
     95300  -35801.498      185.24787     -35616.25       180.96504      182.93436      547.7893     
     95400  -35782.055      189.67337     -35592.381      180.95843      182.97884      547.9748     
     95500  -35772.179      196.32757     -35575.851      180.95321      183.01857      548.16031    
     95600  -35770.976      194.55339     -35576.423      180.95561      183.05845      548.34581    
     95700  -35774.118      185.91669     -35588.201      180.9611       183.09846      548.53131    
     95800  -35780.736      183.62464     -35597.111      180.96666      183.13822      548.71681    
     95900  -35785.814      188.4765      -35597.338      180.97574      183.17941      548.90232    
     96000  -35783.04       190.13937     -35592.901      180.98612      183.22237      549.08782    
     96100  -35789.537      195.87488     -35593.662      180.99517      183.26532      549.27332    
     96200  -35801.806      193.92395     -35607.882      181.00112      183.31019      549.45882    
     96300  -35808.441      182.69466     -35625.747      181.00562      183.36112      549.64433    
     96400  -35811.644      180.91317     -35630.731      181.00339      183.41541      549.82983    
     96500  -35808.462      188.68759     -35619.775      180.99863      183.47355      550.01533    
     96600  -35801.642      196.21113     -35605.431      180.99084      183.53328      550.20083    
     96700  -35797.033      194.53357     -35602.499      180.97852      183.59229      550.38634    
     96800  -35798.854      188.59939     -35610.255      180.96546      183.65078      550.57184    
     96900  -35795.625      179.95495     -35615.67       180.95109      183.70591      550.75734    
     97000  -35792.662      185.04091     -35607.621      180.9367       183.75422      550.94285    
     97100  -35781.651      192.08394     -35589.567      180.92605      183.80016      551.12835    
     97200  -35778.472      200.14684     -35578.325      180.91722      183.83983      551.31385    
     97300  -35784.419      197.45667     -35586.963      180.91158      183.87665      551.49935    
     97400  -35791.322      184.48529     -35606.837      180.90943      183.91533      551.68486    
     97500  -35800.531      181.67132     -35618.86       180.90539      183.95382      551.87036    
     97600  -35803.191      186.60546     -35616.586      180.90432      183.99643      552.05586    
     97700  -35801.968      195.81538     -35606.153      180.90316      184.04302      552.24136    
     97800  -35800.224      198.54872     -35601.675      180.90078      184.09386      552.42687    
     97900  -35806.236      192.97168     -35613.264      180.90002      184.1538       552.61237    
     98000  -35817.213      185.74537     -35631.468      180.89544      184.21879      552.79787    
     98100  -35828.061      185.35455     -35642.706      180.89153      184.28996      552.98337    
     98200  -35825.242      182.98229     -35642.26       180.88729      184.36644      553.16888    
     98300  -35823.584      189.95092     -35633.633      180.87822      184.44147      553.35438    
     98400  -35820.169      194.51033     -35625.658      180.87094      184.51729      553.53988    
     98500  -35816.587      191.60439     -35624.983      180.86378      184.59039      553.72538    
     98600  -35820.041      190.64989     -35629.391      180.85796      184.65823      553.91089    
     98700  -35812.407      180.41666     -35631.99       180.85635      184.72379      554.09639    
     98800  -35805.217      180.04951     -35625.168      180.8557       184.78408      554.28189    
     98900  -35801.476      192.96447     -35608.512      180.8573       184.84097      554.4674     
     99000  -35786.306      192.84054     -35593.466      180.85968      184.89611      554.6529     
     99100  -35781.57       193.81857     -35587.751      180.85921      184.94945      554.8384     
     99200  -35771.73       185.03316     -35586.697      180.85831      185.00247      555.0239     
     99300  -35771.496      188.95486     -35582.542      180.855        185.05623      555.20941    
     99400  -35764.555      191.41299     -35573.142      180.84922      185.11234      555.39491    
     99500  -35759.114      194.70208     -35564.412      180.83908      185.17053      555.58041    
     99600  -35760.179      196.2584      -35563.921      180.82709      185.23504      555.76591    
     99700  -35771.487      194.07581     -35577.411      180.81177      185.30012      555.95142    
     99800  -35786.233      187.21222     -35599.021      180.794        185.36937      556.13692    
     99900  -35802.573      185.92581     -35616.647      180.77818      185.44177      556.32242    
    100000  -35809.326      184.55386     -35624.772      180.75897      185.51065      556.50792    
Loop time of 54799.4 on 12 procs for 100000 steps with 4896 atoms

Performance: 0.158 ns/day, 152.221 hours/ns, 1.825 timesteps/s, 8.934 katom-step/s
41.2% CPU use with 12 MPI tasks x 1 OpenMP threads

MPI task timing breakdown:
Section |  min time  |  avg time  |  max time  |%varavg| %total
---------------------------------------------------------------
Pair    | 788.71     | 988.33     | 1168.1     | 338.4 |  1.80
Neigh   | 2.0315     | 3.3874     | 4.7784     |  54.7 |  0.01
Comm    | 7921.2     | 8777.4     | 9592.8     | 463.6 | 16.02
Output  | 167.03     | 172.31     | 177.27     |  24.8 |  0.31
Modify  | 39022      | 39823      | 40491      | 188.0 | 72.67
Other   |            | 5035       |            |       |  9.19

Nlocal:            408 ave         673 max         174 min
Histogram: 3 1 0 1 1 2 0 1 1 2
Nghost:        1457.83 ave        2268 max         693 min
Histogram: 4 0 0 0 4 0 0 0 0 4
Neighs:              0 ave           0 max           0 min
Histogram: 12 0 0 0 0 0 0 0 0 0

Total # of neighbors = 0
Ave neighs/atom = 0
Neighbor list builds = 510
Dangerous builds = 0
Total wall time: 15:13:37
