LAMMPS (2 Aug 2023 - Update 3)
OMP_NUM_THREADS environment is not set. Defaulting to 1 thread. (src/comm.cpp:98)
  using 1 OpenMP thread(s) per MPI task
Reading data file ...
  orthogonal box = (-100 -100 -2.3312515) to (100 100 46.166171)
  3 by 4 by 1 MPI processor grid
  reading atoms ...
  1480 atoms
  read_data CPU = 0.005 seconds
Replication is creating a 1x1x7 = 7 times larger system...
  orthogonal box = (-100 -100 -2.3312515) to (100 100 337.15071)
  2 by 2 by 3 MPI processor grid
  10360 atoms
  replicate CPU = 0.001 seconds
2520 atoms in group SR
Deleted 2520 atoms, new total = 7840
System init for write_data ...
WARNING: Communication cutoff is 0.0. No ghost atoms will be generated. Atoms may get lost. (src/comm_brick.cpp:210)
Reading airebo potential file CH.airebo with DATE: 2011-10-25
Reading airebo potential file CH.airebo with DATE: 2011-10-25
Reading airebo potential file CH.airebo with DATE: 2011-10-25
Neighbor list info ...
  update: every = 1 steps, delay = 0 steps, check = yes
  max neighbors/atom: 2000, page size: 100000
  master list distance cutoff = 13.2
  ghost atom cutoff = 13.2
  binsize = 6.6, bins = 31 31 52
  6 neighbor lists, perpetual/occasional/extra = 6 0 0
  (1) pair airebo, perpetual, skip from (5)
      attributes: full, newton on, ghost
      pair build: skip/ghost
      stencil: none
      bin: none
  (2) pair airebo, perpetual, skip from (5)
      attributes: full, newton on, ghost
      pair build: skip/ghost
      stencil: none
      bin: none
  (3) pair airebo, perpetual, skip from (5)
      attributes: full, newton on, ghost
      pair build: skip/ghost
      stencil: none
      bin: none
  (4) pair lj/cut, perpetual, skip from (6)
      attributes: half, newton on, cut 13
      pair build: skip
      stencil: none
      bin: none
  (5) neighbor class addition, perpetual
      attributes: full, newton on, ghost
      pair build: full/bin/ghost
      stencil: full/ghost/bin/3d
      bin: standard
  (6) neighbor class addition, perpetual
      attributes: half, newton on, cut 13
      pair build: half/bin/atomonly/newton
      stencil: half/bin/3d
      bin: standard
Setting up sd style minimization ...
  Unit style    : metal
  Current step  : 0
Per MPI rank memory allocation (min/avg/max) = 11.67 | 11.67 | 11.68 Mbytes
   Step          Temp          E_pair         E_mol          TotEng         Press     
         0   0             -58114.666      0             -58114.666     -48.029154    
         1   0             -58114.75       0             -58114.75      -47.94229     
Loop time of 0.0332482 on 12 procs for 1 steps with 7840 atoms

96.8% CPU use with 12 MPI tasks x 1 OpenMP threads

Minimization stats:
  Stopping criterion = energy tolerance
  Energy initial, next-to-last, final = 
     -58114.6664883718  -58114.6664883718  -58114.7497932057
  Force two-norm initial, final = 4.6476617 0.75613937
  Force max component initial, final = 0.052442243 0.0085447709
  Final line search alpha, max atom move = 1 0.0085447709
  Iterations, force evaluations = 1 2

MPI task timing breakdown:
Section |  min time  |  avg time  |  max time  |%varavg| %total
---------------------------------------------------------------
Pair    | 0.02466    | 0.028772   | 0.03259    |   1.4 | 86.54
Neigh   | 0          | 0          | 0          |   0.0 |  0.00
Comm    | 0.00041987 | 0.0041993  | 0.0082879  |   3.6 | 12.63
Output  | 0          | 0          | 0          |   0.0 |  0.00
Modify  | 0          | 0          | 0          |   0.0 |  0.00
Other   |            | 0.0002765  |            |       |  0.83

Nlocal:        653.333 ave         705 max         604 min
Histogram: 3 0 0 0 4 2 0 0 0 3
Nghost:        2566.67 ave        2616 max        2515 min
Histogram: 3 0 0 0 2 4 0 0 0 3
Neighs:              0 ave           0 max           0 min
Histogram: 12 0 0 0 0 0 0 0 0 0

Total # of neighbors = 0
Ave neighs/atom = 0
Neighbor list builds = 0
Dangerous builds = 0
Setting up Verlet run ...
  Unit style    : metal
  Current step  : 1
  Time step     : 0.001
Per MPI rank memory allocation (min/avg/max) = 12.3 | 12.3 | 12.3 Mbytes
   Step          Temp          E_pair         E_mol          TotEng         Press          Volume    
         1   300           -58114.75       0             -57810.769     -24.031773      13579278     
Loop time of 4.81672e-05 on 12 procs for 0 steps with 7840 atoms

72.3% CPU use with 12 MPI tasks x 1 OpenMP threads

MPI task timing breakdown:
Section |  min time  |  avg time  |  max time  |%varavg| %total
---------------------------------------------------------------
Pair    | 0          | 0          | 0          |   0.0 |  0.00
Neigh   | 0          | 0          | 0          |   0.0 |  0.00
Comm    | 0          | 0          | 0          |   0.0 |  0.00
Output  | 0          | 0          | 0          |   0.0 |  0.00
Modify  | 0          | 0          | 0          |   0.0 |  0.00
Other   |            | 4.817e-05  |            |       |100.00

Nlocal:        653.333 ave         658 max         651 min
Histogram: 8 0 0 0 0 0 0 0 0 4
Nghost:        2566.67 ave        2569 max        2562 min
Histogram: 4 0 0 0 0 0 0 0 0 8
Neighs:              0 ave           0 max           0 min
Histogram: 12 0 0 0 0 0 0 0 0 0

Total # of neighbors = 0
Ave neighs/atom = 0
Neighbor list builds = 0
Dangerous builds = 0
WARNING: Dump 2 includes no atom IDs and is not sorted by ID. This may complicate post-processing tasks or visualization (src/dump.cpp:221)
Setting up Verlet run ...
  Unit style    : metal
  Current step  : 0
  Time step     : 0.001
Per MPI rank memory allocation (min/avg/max) = 13.8 | 13.8 | 13.8 Mbytes
   Step         PotEng         KinEng         TotEng           Lx             Ly             Lz      
         0  -58114.75       303.98108     -57810.769      200            200            339.48196    
       100  -57937.915      150.39298     -57787.522      199.99482      199.99347      339.6517     
       200  -57944.136      188.98409     -57755.152      199.99317      199.99062      339.82144    
       300  -57910.847      194.52034     -57716.327      199.99923      199.99594      339.99118    
       400  -57895.094      221.18442     -57673.91       199.99151      199.98803      340.16092    
       500  -57873.764      244.35334     -57629.41       199.99359      199.98943      340.33067    
       600  -57854.312      269.3458      -57584.966      199.9969       199.99286      340.50041    
       700  -57827.681      284.19445     -57543.486      199.98546      199.98299      340.67015    
       800  -57810.073      300.80937     -57509.264      199.99086      199.99089      340.83989    
       900  -57803.344      315.03358     -57488.311      199.98971      199.9931       341.00963    
      1000  -57800.334      312.56473     -57487.769      199.97456      199.98243      341.17937    
      1100  -57807.314      305.21564     -57502.098      199.97855      199.99143      341.34911    
      1200  -57813.366      299.46799     -57513.898      199.97056      199.99136      341.51885    
      1300  -57806.965      293.60478     -57513.36       199.95744      199.98746      341.68859    
      1400  -57800.771      298.78267     -57501.989      199.9611       200.00071      341.85833    
      1500  -57797.345      308.67128     -57488.673      199.94583      199.99674      342.02808    
      1600  -57790.242      306.61695     -57483.625      199.93443      199.99791      342.19782    
      1700  -57796.977      307.44722     -57489.529      199.93482      200.01202      342.36756    
      1800  -57801.04       302.14722     -57498.893      199.91446      200.00751      342.5373     
      1900  -57795.609      292.72213     -57502.887      199.9031       200.01268      342.70704    
      2000  -57793.647      299.31606     -57494.331      199.89697      200.02284      342.87678    
      2100  -57786.319      307.27356     -57479.046      199.87645      200.02036      343.04652    
      2200  -57782.841      312.04831     -57470.793      199.86855      200.03131      343.21626    
      2300  -57780.478      306.09104     -57474.387      199.85749      200.04         343.386      
      2400  -57783.953      300.77095     -57483.182      199.83454      200.0367       343.55574    
      2500  -57785.292      299.42991     -57485.862      199.82746      200.04899      343.72549    
      2600  -57783.49       303.52032     -57479.969      199.81387      200.05557      343.89523    
      2700  -57776.808      308.12646     -57468.682      199.79004      200.05186      344.06497    
      2800  -57765.721      306.30733     -57459.414      199.78229      200.06464      344.23471    
      2900  -57761.071      305.66191     -57455.409      199.76624      200.06696      344.40445    
      3000  -57762.354      303.37356     -57458.98       199.74638      200.06566      344.57419    
      3100  -57764.379      300.15653     -57464.222      199.73972      200.07776      344.74393    
      3200  -57763.406      299.60458     -57463.801      199.72075      200.07618      344.91367    
      3300  -57756.68       301.36201     -57455.318      199.70316      200.07446      345.08341    
      3400  -57749.897      306.64138     -57443.256      199.69761      200.08418      345.25315    
      3500  -57745.233      310.13106     -57435.102      199.67777      200.07815      345.4229     
      3600  -57744.256      307.94922     -57436.307      199.6636       200.07694      345.59264    
      3700  -57743.898      303.44814     -57440.45       199.6565       200.08123      345.76238    
      3800  -57740.817      300.29832     -57440.519      199.63917      200.07315      345.93212    
      3900  -57735.776      301.22977     -57434.546      199.62924      200.07231      346.10186    
      4000  -57728.001      304.11787     -57423.884      199.6215       200.07237      346.2716     
      4100  -57723.715      308.14962     -57415.566      199.60596      200.06249      346.44134    
      4200  -57717.261      303.51574     -57413.745      199.59809      200.05906      346.61108    
      4300  -57716.888      301.84196     -57415.046      199.5895       200.05374      346.78082    
      4400  -57715.858      300.9127      -57414.945      199.57572      200.04268      346.95056    
      4500  -57713.42       303.81584     -57409.604      199.56844      200.03798      347.12031    
      4600  -57707.295      307.50144     -57399.794      199.5594       200.03071      347.29005    
      4700  -57693.118      302.69077     -57390.427      199.54746      200.01883      347.45979    
      4800  -57693.328      306.43343     -57386.895      199.5415       200.01359      347.62953    
      4900  -57691.475      303.1215      -57388.353      199.53041      200.00385      347.79927    
      5000  -57687.841      299.05911     -57388.782      199.51719      199.99184      347.96901    
      5100  -57686.049      302.75376     -57383.295      199.51031      199.98565      348.13875    
      5200  -57674.02       302.16813     -57371.851      199.49766      199.97413      348.30849    
      5300  -57668.627      307.89256     -57360.734      199.48421      199.96426      348.47823    
      5400  -57663.855      307.88331     -57355.972      199.47516      199.95886      348.64797    
      5500  -57660.644      303.36342     -57357.28       199.45923      199.947        348.81771    
      5600  -57659.604      301.53892     -57358.065      199.44468      199.93722      348.98746    
      5700  -57653.453      300.30684     -57353.146      199.43426      199.93358      349.1572     
      5800  -57646.427      303.72595     -57342.701      199.4151       199.92325      349.32694    
      5900  -57638.261      307.23771     -57331.023      199.39735      199.91491      349.49668    
      6000  -57629.369      306.15933     -57323.21       199.38436      199.91197      349.66642    
      6100  -57628.136      307.67107     -57320.465      199.36238      199.90197      349.83616    
      6200  -57621.509      299.98438     -57321.524      199.34236      199.89629      350.0059     
      6300  -57619.607      300.13088     -57319.476      199.32491      199.89437      350.17564    
      6400  -57617.676      306.16164     -57311.514      199.29932      199.88549      350.34538    
      6500  -57606.893      307.86657     -57299.026      199.27865      199.8816       350.51512    
      6600  -57597.447      309.27166     -57288.176      199.25805      199.88049      350.68487    
      6700  -57592.024      307.98723     -57284.037      199.22955      199.87308      350.85461    
      6800  -57589.717      305.64303     -57284.074      199.20548      199.87021      351.02435    
      6900  -57584.208      301.54861     -57282.66       199.18188      199.86896      351.19409    
      7000  -57577.843      302.32506     -57275.518      199.1511       199.86106      351.36383    
      7100  -57565.889      302.93413     -57262.955      199.12422      199.85884      351.53357    
      7200  -57558.038      307.16895     -57250.869      199.0991       199.85873      351.70331    
      7300  -57549.83       305.69416     -57244.136      199.06695      199.85086      351.87305    
      7400  -57546.178      303.14151     -57243.037      199.03957      199.8483       352.04279    
      7500  -57543.887      301.98267     -57241.905      199.01176      199.84645      352.21253    
      7600  -57537.025      301.28659     -57235.739      198.97758      199.8376       352.38228    
      7700  -57528.748      304.05077     -57224.698      198.95067      199.83506      352.55202    
      7800  -57516.907      305.00645     -57211.9        198.92094      199.82928      352.72176    
      7900  -57507.762      305.5782      -57202.184      198.88707      199.81854      352.8915     
      8000  -57503.08       305.08463     -57197.995      198.86041      199.81505      353.06124    
      8100  -57500.045      304.21793     -57195.827      198.82973      199.80566      353.23098    
      8200  -57493.691      301.80145     -57191.89       198.79845      199.79401      353.40072    
      8300  -57487.833      303.8877      -57183.946      198.77156      199.78684      353.57046    
      8400  -57479.096      307.23202     -57171.864      198.74076      199.77429      353.7402     
      8500  -57461.962      300.79729     -57161.164      198.7114       199.76108      353.90994    
      8600  -57457.526      304.0357      -57153.49       198.68353      199.7484       354.07969    
      8700  -57456.134      308.14321     -57147.991      198.6533       199.73211      354.24943    
      8800  -57445.299      301.8228      -57143.476      198.62509      199.71806      354.41917    
      8900  -57437.776      301.04884     -57136.727      198.59718      199.70215      354.58891    
      9000  -57430.218      302.42673     -57127.791      198.56873      199.68432      354.75865    
      9100  -57424.566      306.87776     -57117.689      198.54042      199.6663       354.92839    
      9200  -57413.137      306.07523     -57107.062      198.51119      199.64708      355.09813    
      9300  -57403.058      304.33959     -57098.718      198.48296      199.62857      355.26787    
      9400  -57397.545      304.43394     -57093.111      198.45372      199.60753      355.43761    
      9500  -57390.587      302.57866     -57088.009      198.42382      199.58574      355.60735    
      9600  -57383.991      303.27095     -57080.72       198.39551      199.56609      355.7771     
      9700  -57374.969      307.45596     -57067.513      198.36391      199.54341      355.94684    
      9800  -57361.594      308.07777     -57053.516      198.33318      199.52163      356.11658    
      9900  -57349.033      303.54467     -57045.488      198.30306      199.49985      356.28632    
     10000  -57348.677      307.55715     -57041.12       198.26945      199.47575      356.45606    
     10100  -57336.75       301.98686     -57034.763      198.23675      199.45414      356.6258     
     10200  -57325.986      301.05648     -57024.929      198.20235      199.43189      356.79554    
     10300  -57318.573      304.13219     -57014.44       198.16751      199.40838      356.96528    
     10400  -57310.241      307.09881     -57003.142      198.13239      199.38618      357.13502    
     10500  -57299.11       307.54582     -56991.564      198.09431      199.36398      357.30476    
     10600  -57289.613      306.90151     -56982.711      198.05457      199.34168      357.4745     
     10700  -57283.49       304.73917     -56978.751      198.01553      199.31976      357.64425    
     10800  -57274.418      301.2028      -56973.215      197.97569      199.29909      357.81399    
     10900  -57261.074      298.3198      -56962.754      197.93157      199.27675      357.98373    
     11000  -57253.227      305.47323     -56947.754      197.88774      199.25673      358.15347    
     11100  -57241.65       308.9831      -56932.667      197.84388      199.23746      358.32321    
     11200  -57232.887      308.23376     -56924.653      197.79605      199.21504      358.49295    
     11300  -57223.299      304.80603     -56918.493      197.74781      199.19471      358.66269    
     11400  -57216.534      303.74685     -56912.787      197.69972      199.17717      358.83243    
     11500  -57204.508      300.02275     -56904.485      197.64702      199.15546      359.00217    
     11600  -57195.316      302.74629     -56892.57       197.59665      199.13644      359.17191    
     11700  -57186.511      311.84483     -56874.666      197.54612      199.11814      359.34166    
     11800  -57172.288      307.80417     -56864.484      197.48988      199.09703      359.5114     
     11900  -57166.458      306.45381     -56860.004      197.43704      199.07925      359.68114    
     12000  -57155.853      303.29094     -56852.562      197.38311      199.05933      359.85088    
     12100  -57147.038      304.62224     -56842.415      197.32541      199.03594      360.02062    
     12200  -57136.896      307.1114      -56829.785      197.27104      199.01765      360.19036    
     12300  -57118.173      305.92914     -56812.244      197.21523      198.99815      360.3601     
     12400  -57106.497      306.62328     -56799.873      197.15679      198.9734       360.52984    
     12500  -57101.575      306.94684     -56794.628      197.10271      198.95276      360.69958    
     12600  -57090.303      303.5617      -56786.741      197.04673      198.93052      360.86932    
     12700  -57082.435      304.30016     -56778.134      196.98785      198.9049       361.03907    
     12800  -57075.74       305.33298     -56770.407      196.93427      198.88261      361.20881    
     12900  -57062.13       301.05475     -56761.076      196.87843      198.85566      361.37855    
     13000  -57049.808      304.10238     -56745.705      196.82116      198.82685      361.54829    
     13100  -57035.259      306.23634     -56729.022      196.76846      198.80289      361.71803    
     13200  -57024.782      306.35049     -56718.431      196.71392      198.77459      361.88777    
     13300  -57014.641      302.62299     -56712.018      196.65854      198.74249      362.05751    
     13400  -57006.586      301.24147     -56705.345      196.609        198.7157       362.22725    
     13500  -56994.75       301.57955     -56693.17       196.55363      198.68343      362.39699    
     13600  -56985.569      306.03004     -56679.539      196.50014      198.65106      362.56673    
     13700  -56969.032      303.74469     -56665.288      196.45251      198.62179      362.73648    
     13800  -56956.127      304.94237     -56651.184      196.39896      198.58545      362.90622    
     13900  -56940.578      305.2397      -56635.338      196.34784      198.55243      363.07596    
     14000  -56930.212      309.49414     -56620.718      196.30016      198.52193      363.2457     
     14100  -56924.529      309.10759     -56615.421      196.24718      198.48394      363.41544    
     14200  -56910.443      301.75795     -56608.685      196.19926      198.45066      363.58518    
     14300  -56900.711      302.98999     -56597.721      196.15045      198.41671      363.75492    
     14400  -56887.733      304.5172      -56583.215      196.09743      198.37934      363.92466    
     14500  -56873.74       306.31818     -56567.421      196.05218      198.34801      364.0944     
     14600  -56857.799      305.67669     -56552.122      196.00248      198.31218      364.26414    
     14700  -56853.353      309.89743     -56543.455      195.95008      198.27506      364.43389    
     14800  -56839.921      302.06398     -56537.857      195.9036       198.24455      364.60363    
     14900  -56830.057      303.9075      -56526.15       195.85277      198.20951      364.77337    
     15000  -56813.878      302.97819     -56510.9        195.80234      198.17474      364.94311    
     15100  -56799.363      305.81912     -56493.544      195.7557       198.1452       365.11285    
     15200  -56783.046      305.19427     -56477.852      195.70233      198.11108      365.28259    
     15300  -56776.388      303.8471      -56472.541      195.65218      198.08054      365.45233    
     15400  -56767.973      302.9958      -56464.977      195.60427      198.05177      365.62207    
     15500  -56753.758      302.43405     -56451.324      195.55012      198.01864      365.79181    
     15600  -56741.092      306.93704     -56434.155      195.5011       197.99242      365.96155    
     15700  -56723.412      305.32909     -56418.083      195.45122      197.96608      366.13129    
     15800  -56711.202      305.29247     -56405.909      195.39646      197.935        366.30104    
     15900  -56701.212      299.35217     -56401.859      195.34921      197.91223      366.47078    
     16000  -56690.448      300.81127     -56389.636      195.29751      197.88722      366.64052    
     16100  -56676.329      303.70266     -56372.627      195.24258      197.86014      366.81026    
     16200  -56659.076      303.47976     -56355.596      195.19524      197.84077      366.98       
     16300  -56647.147      305.40709     -56341.74       195.14347      197.81687      367.14974    
     16400  -56636.89       305.34783     -56331.542      195.09015      197.79273      367.31948    
     16500  -56623.538      296.27278     -56327.265      195.04367      197.77623      367.48922    
     16600  -56613.275      301.41459     -56311.86       194.99072      197.75282      367.65896    
     16700  -56596.41       303.39801     -56293.012      194.94118      197.73194      367.8287     
     16800  -56580.263      304.05708     -56276.206      194.89709      197.71677      367.99845    
     16900  -56568.064      306.13796     -56261.926      194.84465      197.69404      368.16819    
     17000  -56553.343      301.17186     -56252.171      194.79673      197.67446      368.33793    
     17100  -56545.255      300.44755     -56244.808      194.75526      197.65902      368.50767    
     17200  -56531.19       302.40658     -56228.783      194.70581      197.63568      368.67741    
     17300  -56511.197      299.73654     -56211.46       194.66298      197.61935      368.84715    
     17400  -56500.963      305.75489     -56195.208      194.62223      197.60249      369.01689    
     17500  -56482.776      302.25788     -56180.518      194.57721      197.57902      369.18663    
     17600  -56472.031      303.76808     -56168.263      194.5398       197.5628       369.35637    
     17700  -56463.362      302.89003     -56160.472      194.49985      197.54326      369.52611    
     17800  -56449.059      299.61342     -56149.446      194.45844      197.52002      369.69586    
     17900  -56433.184      303.36708     -56129.817      194.42582      197.50343      369.8656     
     18000  -56416.148      304.59586     -56111.552      194.39033      197.48215      370.03534    
     18100  -56403.278      307.46189     -56095.816      194.35421      197.45899      370.20508    
     18200  -56386.996      306.16282     -56080.833      194.32509      197.44172      370.37482    
     18300  -56370.687      303.05002     -56067.637      194.29279      197.41846      370.54456    
     18400  -56359.24       301.78288     -56057.457      194.26106      197.39463      370.7143     
     18500  -56344.896      299.50319     -56045.392      194.23484      197.37589      370.88404    
     18600  -56327.22       301.3454      -56025.874      194.20548      197.35244      371.05378    
     18700  -56312.085      305.90535     -56006.179      194.17801      197.32884      371.22352    
     18800  -56296.357      302.99305     -55993.364      194.15668      197.3101       371.39327    
     18900  -56281.445      299.19867     -55982.246      194.12893      197.28478      371.56301    
     19000  -56273.793      304.45827     -55969.335      194.10458      197.26187      371.73275    
     19100  -56256.717      301.37873     -55955.338      194.0863       197.24355      371.90249    
     19200  -56241.681      304.84231     -55936.838      194.06056      197.217        372.07223    
     19300  -56220.288      302.47852     -55917.81       194.03948      197.19542      372.24197    
     19400  -56212.207      309.41785     -55902.789      194.02209      197.1776       372.41171    
     19500  -56200.348      308.34214     -55892.006      193.99677      197.15135      372.58145    
     19600  -56185.97       303.18256     -55882.787      193.97883      197.13202      372.75119    
     19700  -56170.644      304.10186     -55866.542      193.96155      197.1142       372.92093    
     19800  -56152.637      304.83344     -55847.803      193.93685      197.09024      373.09068    
     19900  -56132.686      302.00108     -55830.685      193.92027      197.07401      373.26042    
     20000  -56118.693      304.98479     -55813.708      193.90251      197.05759      373.43016    
     20100  -56100.402      304.09335     -55796.309      193.87789      197.03561      373.5999     
     20200  -56085.296      308.11629     -55777.18       193.86152      197.02272      373.76964    
     20300  -56069.859      309.32437     -55760.535      193.84127      197.00697      373.93938    
     20400  -56058.926      308.15531     -55750.771      193.81648      196.98768      374.10912    
     20500  -56040.618      300.64167     -55739.977      193.80058      196.97858      374.27886    
     20600  -56027.311      302.78904     -55724.522      193.77862      196.96445      374.4486     
     20700  -56008.746      303.74621     -55705          193.75326      196.94828      374.61834    
     20800  -55991.416      307.27067     -55684.146      193.73684      196.9414       374.78808    
     20900  -55972.011      303.65048     -55668.361      193.71371      196.9297       374.95783    
     21000  -55956.735      301.60527     -55655.13       193.68766      196.91638      375.12757    
     21100  -55944.02       301.2763      -55642.744      193.66978      196.91122      375.29731    
     21200  -55929.796      301.54949     -55628.247      193.64438      196.90027      375.46705    
     21300  -55914.186      305.04165     -55609.144      193.6193       196.88995      375.63679    
     21400  -55895.279      308.8663      -55586.412      193.6011       196.88712      375.80653    
     21500  -55879.568      307.72541     -55571.843      193.57508      196.87703      375.97627    
     21600  -55866.494      305.60861     -55560.885      193.54931      196.86777      376.14601    
     21700  -55848.248      301.57064     -55546.677      193.53048      196.86585      376.31575    
     21800  -55831.225      301.80589     -55529.419      193.50394      196.85602      376.48549    
     21900  -55816.844      306.15718     -55510.687      193.47962      196.84839      376.65524    
     22000  -55798.691      306.647       -55492.044      193.46154      196.84655      376.82498    
     22100  -55782.286      311.38618     -55470.9        193.43532      196.83661      376.99472    
     22200  -55763.789      308.74779     -55455.041      193.41212      196.82914      377.16446    
     22300  -55747.726      302.22615     -55445.5        193.39421      196.82641      377.3342     
     22400  -55733.434      302.06248     -55431.372      193.36914      196.81524      377.50394    
     22500  -55717.206      302.80061     -55414.406      193.34945      196.80838      377.67368    
     22600  -55696.797      303.35914     -55393.438      193.33232      196.80387      377.84342    
     22700  -55677.941      306.18057     -55371.76       193.30935      196.79191      378.01316    
     22800  -55659.853      301.99263     -55357.86       193.29284      196.78516      378.1829     
     22900  -55648.353      304.35707     -55343.996      193.27598      196.77629      378.35265    
     23000  -55631.721      302.79668     -55328.925      193.25572      196.7633       378.52239    
     23100  -55616.329      303.84849     -55312.481      193.24146      196.75488      378.69213    
     23200  -55592.664      300.08836     -55292.576      193.22596      196.74373      378.86187    
     23300  -55576.003      307.33283     -55268.67       193.2091       196.73025      379.03161    
     23400  -55557.382      304.0903      -55253.292      193.19743      196.72046      379.20135    
     23500  -55546.201      304.82551     -55241.376      193.18282      196.70631      379.37109    
     23600  -55531.851      305.59311     -55226.258      193.16913      196.69265      379.54083    
     23700  -55513.474      304.74887     -55208.726      193.15796      196.67966      379.71057    
     23800  -55491.497      301.52393     -55189.973      193.14497      196.66328      379.88031    
     23900  -55474.797      306.95716     -55167.84       193.13371      196.6477       380.05006    
     24000  -55452.283      306.27557     -55146.008      193.12412      196.63367      380.2198     
     24100  -55439.386      306.72507     -55132.661      193.11219      196.61568      380.38954    
     24200  -55422.847      302.05259     -55120.794      193.10234      196.59905      380.55928    
     24300  -55410.778      306.82514     -55103.953      193.09335      196.58381      380.72902    
     24400  -55387.554      301.80668     -55085.747      193.082        196.5656       380.89876    
     24500  -55369.919      304.62246     -55065.296      193.07247      196.54836      381.0685     
     24600  -55351.368      307.9217      -55043.447      193.06386      196.53243      381.23824    
     24700  -55334.049      309.51027     -55024.539      193.05147      196.51323      381.40798    
     24800  -55322.292      307.79203     -55014.5        193.0415       196.49682      381.57772    
     24900  -55305.344      304.89463     -55000.449      193.03264      196.48155      381.74747    
     25000  -55285.122      303.76649     -54981.355      193.0199       196.46258      381.91721    
     25100  -55263.301      304.65318     -54958.648      193.0088       196.44716      382.08695    
     25200  -55245.306      307.15993     -54938.146      192.99861      196.43341      382.25669    
     25300  -55225.156      303.74573     -54921.41       192.98443      196.41557      382.42643    
     25400  -55209.248      301.68636     -54907.562      192.97299      196.40202      382.59617    
     25500  -55192.124      301.40262     -54890.722      192.95974      196.38811      382.76591    
     25600  -55175.925      304.0382      -54871.887      192.9436       196.37253      382.93565    
     25700  -55152.605      301.44564     -54851.159      192.92993      196.36015      383.10539    
     25800  -55135.65       306.45291     -54829.198      192.91551      196.3481       383.27513    
     25900  -55113.813      303.70235     -54810.111      192.8978       196.33444      383.44487    
     26000  -55100.814      302.59163     -54798.222      192.88198      196.32413      383.61462    
     26100  -55082.652      298.22392     -54784.428      192.86606      196.31388      383.78436    
     26200  -55065.234      301.34854     -54763.885      192.84713      196.30172      383.9541     
     26300  -55044.768      303.83458     -54740.934      192.8292       196.29283      384.12384    
     26400  -55024.199      303.24255     -54720.956      192.81076      196.28396      384.29358    
     26500  -55009.093      305.82203     -54703.271      192.79026      196.27326      384.46332    
     26600  -54991.551      305.63915     -54685.912      192.77063      196.26458      384.63306    
     26700  -54975.54       305.53678     -54670.003      192.75038      196.2571       384.8028     
     26800  -54953.506      297.21913     -54656.287      192.72859      196.2479       384.97254    
     26900  -54935.904      300.5785      -54635.326      192.70829      196.23962      385.14228    
     27000  -54916.161      305.56721     -54610.594      192.68739      196.23209      385.31203    
     27100  -54893.587      303.48776     -54590.099      192.66464      196.22376      385.48177    
     27200  -54874.574      302.70337     -54571.871      192.64294      196.21509      385.65151    
     27300  -54861.634      305.46295     -54556.171      192.6211       196.20647      385.82125    
     27400  -54840.227      297.52344     -54542.704      192.599        196.19807      385.99099    
     27500  -54823.901      300.17271     -54523.729      192.57706      196.1898       386.16073    
     27600  -54802.003      304.82217     -54497.181      192.55475      196.17986      386.33047    
     27700  -54781.567      305.1786      -54476.388      192.53308      196.1693       386.50021    
     27800  -54764.276      306.5421      -54457.733      192.51227      196.15967      386.66995    
     27900  -54743.73       303.85027     -54439.88       192.4907       196.14896      386.83969    
     28000  -54724.963      301.091       -54423.872      192.47058      196.13785      387.00944    
     28100  -54708.067      300.37284     -54407.694      192.45064      196.12524      387.17918    
     28200  -54684.699      298.68711     -54386.011      192.42992      196.11184      387.34892    
     28300  -54664.704      304.04766     -54360.657      192.41169      196.10007      387.51866    
     28400  -54650.345      310.04752     -54340.298      192.39348      196.08606      387.6884     
     28500  -54628.244      305.21866     -54323.025      192.37398      196.0693       387.85814    
     28600  -54610.062      301.63892     -54308.423      192.35697      196.05445      388.02788    
     28700  -54596.924      301.20464     -54295.719      192.33998      196.03852      388.19762    
     28800  -54575.431      300.72915     -54274.702      192.32325      196.0206       388.36736    
     28900  -54549.969      302.92117     -54247.048      192.30894      196.00387      388.5371     
     29000  -54530.845      305.09699     -54225.748      192.29318      195.98571      388.70685    
     29100  -54509.002      304.0671      -54204.935      192.27585      195.96554      388.87659    
     29200  -54492.403      306.8278      -54185.575      192.26254      195.94708      389.04633    
     29300  -54472.304      303.21009     -54169.094      192.24841      195.92698      389.21607    
     29400  -54457.112      303.34693     -54153.765      192.23227      195.90512      389.38581    
     29500  -54431.693      298.02802     -54133.665      192.21852      195.88523      389.55555    
     29600  -54406.628      300.61284     -54106.015      192.20479      195.86357      389.72529    
     29700  -54389.082      304.32495     -54084.757      192.18966      195.84036      389.89503    
     29800  -54374.148      306.7595      -54067.388      192.17646      195.82051      390.06477    
     29900  -54353.646      301.2608      -54052.386      192.16171      195.79885      390.23451    
     30000  -54334.537      300.14965     -54034.387      192.14561      195.77455      390.40426    
     30100  -54312.582      305.02793     -54007.554      192.13228      195.75401      390.574      
     30200  -54290.228      306.7253      -53983.503      192.11656      195.73226      390.74374    
     30300  -54271.662      306.46325     -53965.199      192.0987       195.70838      390.91348    
     30400  -54255.536      305.00233     -53950.533      192.0838       195.68786      391.08322    
     30500  -54233.873      301.10394     -53932.769      192.06701      195.66613      391.25296    
     30600  -54212.057      302.05358     -53910.003      192.04807      195.64457      391.4227     
     30700  -54192.468      310.95416     -53881.514      192.03036      195.62483      391.59244    
     30800  -54167.453      304.48416     -53862.969      192.01228      195.60443      391.76218    
     30900  -54150.603      302.42494     -53848.178      191.99212      195.58412      391.93192    
     31000  -54135.478      304.02967     -53831.449      191.97145      195.56578      392.10166    
     31100  -54112.866      302.36354     -53810.503      191.94994      195.5463       392.27141    
     31200  -54088.162      304.94942     -53783.212      191.92752      195.52653      392.44115    
     31300  -54067.329      306.31663     -53761.013      191.90609      195.50976      392.61089    
     31400  -54047.615      303.79359     -53743.821      191.88261      195.49306      392.78063    
     31500  -54029.541      301.62859     -53727.912      191.858        195.47528      392.95037    
     31600  -54012.065      303.03466     -53709.031      191.83462      195.45902      393.12011    
     31700  -53988.067      303.27238     -53684.794      191.80881      195.44324      393.28985    
     31800  -53963.216      305.81634     -53657.399      191.78209      195.42684      393.45959    
     31900  -53946.356      306.99466     -53639.362      191.75768      195.4129       393.62933    
     32000  -53929.904      306.19678     -53623.707      191.7299       195.39671      393.79907    
     32100  -53909.352      303.62746     -53605.725      191.70165      195.38118      393.96882    
     32200  -53886.74       303.88371     -53582.857      191.67551      195.36805      394.13856    
     32300  -53864.183      309.74674     -53554.436      191.64681      195.3518       394.3083     
     32400  -53842.184      307.364       -53534.82       191.61817      195.33686      394.47804    
     32500  -53823.666      304.82372     -53518.842      191.59089      195.32368      394.64778    
     32600  -53804.208      303.21241     -53500.996      191.56039      195.30619      394.81752    
     32700  -53781.346      302.3856      -53478.96       191.53197      195.29051      394.98726    
     32800  -53757.793      307.7629      -53450.03       191.50544      195.27753      395.157      
     32900  -53736.435      307.57784     -53428.857      191.47465      195.25963      395.32674    
     33000  -53720.219      307.5979      -53412.621      191.44561      195.24204      395.49648    
     33100  -53697.623      301.74845     -53395.874      191.41907      195.22735      395.66623    
     33200  -53682.272      306.98786     -53375.284      191.38922      195.20805      395.83597    
     33300  -53653.297      301.72164     -53351.575      191.36071      195.1897       396.00571    
     33400  -53627.698      304.97247     -53322.725      191.33503      195.17273      396.17545    
     33500  -53608.493      306.48772     -53302.005      191.30675      195.15214      396.34519    
     33600  -53586.845      301.29206     -53285.553      191.27941      195.13118      396.51493    
     33700  -53574.357      305.42703     -53268.93       191.25464      195.11215      396.68467    
     33800  -53551.141      302.53832     -53248.603      191.22754      195.08912      396.85441    
     33900  -53527.713      303.2312      -53224.481      191.20203      195.06688      397.02415    
     34000  -53504.04       307.91617     -53196.124      191.17813      195.04452      397.19389    
     34100  -53482.167      306.06275     -53176.105      191.15299      195.02034      397.36364    
     34200  -53461.924      302.3928      -53159.532      191.12963      194.99631      397.53338    
     34300  -53443.935      302.39955     -53141.535      191.10713      194.97167      397.70312    
     34400  -53420.071      299.98973     -53120.081      191.08214      194.94471      397.87286    
     34500  -53397.69       302.05741     -53095.633      191.06028      194.91924      398.0426     
     34600  -53376.535      308.80366     -53067.732      191.03981      194.89375      398.21234    
     34700  -53352.123      308.66201     -53043.461      191.01607      194.86467      398.38208    
     34800  -53329.768      303.19446     -53026.573      190.99461      194.83756      398.55182    
     34900  -53311.481      302.78479     -53008.696      190.97385      194.81029      398.72156    
     35000  -53294.477      303.09159     -52991.385      190.9513       194.77994      398.8913     
     35100  -53275.886      303.74208     -52972.144      190.93057      194.75194      399.06105    
     35200  -53251.749      303.43308     -52948.316      190.90993      194.72393      399.23079    
     35300  -53224.999      305.02898     -52919.97       190.88697      194.69233      399.40053    
     35400  -53208.278      309.69311     -52898.585      190.86603      194.66435      399.57027    
     35500  -53179.749      298.97145     -52880.777      190.84498      194.63619      399.74001    
     35600  -53169.279      306.36252     -52862.917      190.82137      194.60465      399.90975    
     35700  -53144.396      302.01883     -52842.377      190.79918      194.57619      400.07949    
     35800  -53117.063      304.19599     -52812.867      190.7768       194.54833      400.24923    
     35900  -53096.44       308.47673     -52787.963      190.75125      194.51762      400.41897    
     36000  -53070.179      300.08975     -52770.089      190.7282       194.48974      400.58871    
     36100  -53055.296      301.69741     -52753.599      190.7054       194.46337      400.75845    
     36200  -53033.608      300.11229     -52733.496      190.67791      194.43414      400.9282     
     36300  -53010.236      301.63177     -52708.604      190.65295      194.40742      401.09794    
     36400  -52988.656      308.28963     -52680.366      190.62829      194.38227      401.26768    
     36500  -52964.912      305.54923     -52659.363      190.5988       194.35417      401.43742    
     36600  -52942.441      300.88308     -52641.558      190.57134      194.32889      401.60716    
     36700  -52924.77       302.88427     -52621.886      190.54461      194.30506      401.7769     
     36800  -52901.5        301.1756      -52600.325      190.51386      194.2787       401.94664    
     36900  -52881.105      303.34762     -52577.757      190.48488      194.25562      402.11638    
     37000  -52860.789      305.58634     -52555.202      190.4567       194.23385      402.28612    
     37100  -52835.318      303.00843     -52532.31       190.42422      194.20858      402.45586    
     37200  -52816.191      306.87081     -52509.32       190.39374      194.1869       402.62561    
     37300  -52789.355      303.66371     -52485.692      190.36386      194.16683      402.79535    
     37400  -52769.557      308.16176     -52461.396      190.32897      194.14207      402.96509    
     37500  -52743.505      303.26117     -52440.244      190.29708      194.12087      403.13483    
     37600  -52725.072      301.37157     -52423.7        190.26629      194.10257      403.30457    
     37700  -52704.845      299.72911     -52405.116      190.23118      194.07962      403.47431    
     37800  -52681.018      300.25827     -52380.76       190.1974       194.05801      403.64405    
     37900  -52656.481      304.57482     -52351.906      190.16598      194.0403       403.81379    
     38000  -52634.083      304.30486     -52329.778      190.13064      194.0186       403.98353    
     38100  -52617.252      306.67659     -52310.575      190.09584      193.99664      404.15327    
     38200  -52596.728      304.86063     -52291.868      190.064        193.97792      404.32302    
     38300  -52572.235      300.29264     -52271.943      190.0301       193.95738      404.49276    
     38400  -52549.99       303.17807     -52246.812      189.99441      193.93441      404.6625     
     38500  -52520.441      301.89625     -52218.544      189.9627       193.91426      404.83224    
     38600  -52503.302      308.00753     -52195.294      189.92927      193.89302      405.00198    
     38700  -52480.831      304.46374     -52176.368      189.89513      193.86962      405.17172    
     38800  -52460.3        300.04202     -52160.258      189.86383      193.84815      405.34146    
     38900  -52440.685      300.65977     -52140.025      189.83207      193.82506      405.5112     
     39000  -52413.137      301.2401      -52111.897      189.79936      193.80118      405.68094    
     39100  -52391.518      305.68781     -52085.83       189.77005      193.77869      405.85068    
     39200  -52365.113      300.35677     -52064.756      189.73965      193.75418      406.02043    
     39300  -52351.626      307.26408     -52044.362      189.70789      193.72772      406.19017    
     39400  -52323.302      299.58745     -52023.714      189.68061      193.70393      406.35991    
     39500  -52304.731      305.11932     -51999.612      189.65206      193.6769       406.52965    
     39600  -52279.32       307.34966     -51971.971      189.62286      193.64885      406.69939    
     39700  -52255.602      308.30582     -51947.296      189.59703      193.62326      406.86913    
     39800  -52234.467      304.85252     -51929.614      189.57142      193.59566      407.03887    
     39900  -52215.163      301.27964     -51913.883      189.54372      193.56483      407.20861    
     40000  -52192.329      302.39008     -51889.939      189.52012      193.53871      407.37835    
     40100  -52164.171      301.63439     -51862.537      189.49615      193.51017      407.54809    
     40200  -52146.245      308.32218     -51837.922      189.47067      193.47826      407.71784    
     40300  -52115.572      299.34325     -51816.229      189.44876      193.45037      407.88758    
     40400  -52100.126      301.571       -51798.555      189.42519      193.42053      408.05732    
     40500  -52078.604      296.13041     -51782.473      189.40038      193.38756      408.22706    
     40600  -52054.924      298.31394     -51756.61       189.37877      193.35828      408.3968     
     40700  -52031.857      302.4395      -51729.418      189.35684      193.32874      408.56654    
     40800  -52007.826      303.98799     -51703.838      189.33192      193.29535      408.73628    
     40900  -51985.212      305.74833     -51679.463      189.3113       193.26597      408.90602    
     41000  -51961.78       304.33986     -51657.44       189.29081      193.23797      409.07576    
     41100  -51938.681      297.92355     -51640.758      189.26559      193.20459      409.2455     
     41200  -51919.597      298.45322     -51621.144      189.2442       193.17478      409.41524    
     41300  -51898.656      304.57577     -51594.08       189.22378      193.14742      409.58499    
     41400  -51873.574      306.38527     -51567.189      189.198        193.11493      409.75473    
     41500  -51850.02       306.20072     -51543.819      189.1739       193.08417      409.92447    
     41600  -51827.88       306.43091     -51521.449      189.15356      193.05801      410.09421    
     41700  -51803.124      300.78115     -51502.343      189.12895      193.02901      410.26395    
     41800  -51779.231      294.65234     -51484.579      189.10318      192.99893      410.43369    
     41900  -51763.478      303.85911     -51459.619      189.08162      192.97353      410.60343    
     42000  -51737.239      307.81349     -51429.426      189.05727      192.94745      410.77317    
     42100  -51707.956      301.99343     -51405.962      189.03013      192.91884      410.94291    
     42200  -51688.166      302.71416     -51385.452      189.00682      192.89511      411.11265    
     42300  -51666.375      299.57162     -51366.803      188.98157      192.87071      411.2824     
     42400  -51647.499      302.13427     -51345.365      188.953        192.84434      411.45214    
     42500  -51621.712      306.47225     -51315.24       188.92763      192.82173      411.62188    
     42600  -51592.629      303.53692     -51289.092      188.90176      192.80026      411.79162    
     42700  -51575.776      307.31088     -51268.466      188.87228      192.7762       411.96136    
     42800  -51550.949      300.38027     -51250.569      188.84501      192.75523      412.1311     
     42900  -51531.339      302.31089     -51229.028      188.8186       192.73625      412.30084    
     43000  -51507.751      305.09148     -51202.66       188.78841      192.71434      412.47058    
     43100  -51481.075      310.25129     -51170.823      188.7605       192.69494      412.64032    
     43200  -51456.942      308.4359      -51148.506      188.73339      192.67731      412.81006    
     43300  -51434.452      303.32562     -51131.126      188.70242      192.65751      412.97981    
     43400  -51411.356      299.54613     -51111.81       188.67204      192.63794      413.14955    
     43500  -51394.28       305.06129     -51089.219      188.64397      192.62118      413.31929    
     43600  -51367.39       304.84374     -51062.547      188.6135       192.60307      413.48903    
     43700  -51339.626      306.16202     -51033.464      188.58278      192.58436      413.65877    
     43800  -51317.804      307.21112     -51010.593      188.55515      192.56872      413.82851    
     43900  -51296.769      303.38027     -50993.389      188.52516      192.55105      413.99825    
     44000  -51274.407      302.84982     -50971.557      188.49418      192.53218      414.16799    
     44100  -51253.739      306.04882     -50947.69       188.46686      192.51621      414.33773    
     44200  -51229.449      306.33008     -50923.119      188.43846      192.49915      414.50747    
     44300  -51206.248      307.50872     -50898.739      188.40832      192.48039      414.67722    
     44400  -51179.764      303.3425      -50876.421      188.38115      192.46357      414.84696    
     44500  -51159.596      301.77444     -50857.822      188.35456      192.44671      415.0167     
     44600  -51138.416      300.69904     -50837.717      188.32526      192.42641      415.18644    
     44700  -51110.242      299.30355     -50810.938      188.29865      192.4079       415.35618    
     44800  -51084.215      303.27379     -50780.941      188.27471      192.39115      415.52592    
     44900  -51062.157      303.78052     -50758.376      188.24744      192.37058      415.69566    
     45000  -51047.238      308.98191     -50738.256      188.22212      192.3504       415.8654     
     45100  -51024.68       306.59604     -50718.084      188.20027      192.33308      416.03514    
     45200  -51000.548      302.68642     -50697.861      188.17668      192.31238      416.20488    
     45300  -50978.914      299.70151     -50679.212      188.1524       192.29002      416.37463    
     45400  -50954.664      301.71895     -50652.945      188.13166      192.27012      416.54437    
     45500  -50926.371      303.51685     -50622.854      188.11085      192.24871      416.71411    
     45600  -50901.747      304.78363     -50596.963      188.08832      192.22435      416.88385    
     45700  -50877.927      305.09858     -50572.828      188.06988      192.20321      417.05359    
     45800  -50855.353      303.16041     -50552.192      188.0515       192.18109      417.22333    
     45900  -50838.949      304.17058     -50534.779      188.03098      192.15566      417.39307    
     46000  -50812.571      301.6134      -50510.958      188.01465      192.1335       417.56281    
     46100  -50785.702      304.09778     -50481.604      187.99777      192.11038      417.73255    
     46200  -50758.941      302.59179     -50456.349      187.97884      192.08418      417.90229    
     46300  -50738.121      304.11744     -50434.003      187.96314      192.06031      418.07203    
     46400  -50719.713      306.1481      -50413.565      187.94841      192.03732      418.24178    
     46500  -50693.102      299.69745     -50393.405      187.93016      192.01054      418.41152    
     46600  -50669.766      300.7696      -50368.997      187.91424      191.98544      418.58126    
     46700  -50645.469      307.50257     -50337.967      187.90113      191.9633       418.751      
     46800  -50617.988      305.25267     -50312.735      187.88383      191.93641      418.92074    
     46900  -50598.853      305.80597     -50293.047      187.8665       191.91032      419.09048    
     47000  -50573.97       299.95313     -50274.017      187.85418      191.88858      419.26022    
     47100  -50552.663      302.3111      -50250.352      187.83825      191.86358      419.42996    
     47200  -50526.782      301.85829     -50224.923      187.8203       191.83718      419.5997     
     47300  -50504.513      304.70652     -50199.806      187.8074       191.81593      419.76944    
     47400  -50480.251      303.90922     -50176.342      187.79158      191.79226      419.93919    
     47500  -50459.422      301.55651     -50157.866      187.77355      191.76742      420.10893    
     47600  -50435.006      298.74762     -50136.259      187.75888      191.74611      420.27867    
     47700  -50412.537      305.11894     -50107.418      187.74291      191.72451      420.44841    
     47800  -50386.476      306.76315     -50079.713      187.72488      191.70206      420.61815    
     47900  -50362.995      305.96946     -50057.025      187.70852      191.68185      420.78789    
     48000  -50342.212      305.90587     -50036.306      187.69183      191.66209      420.95763    
     48100  -50318.036      303.03113     -50015.005      187.67238      191.64136      421.12737    
     48200  -50295.521      299.28455     -49996.237      187.65438      191.62288      421.29711    
     48300  -50275.292      299.89464     -49975.397      187.63675      191.60596      421.46685    
     48400  -50245.834      301.19141     -49944.642      187.61686      191.58766      421.6366     
     48500  -50223.141      307.08198     -49916.059      187.59713      191.57034      421.80634    
     48600  -50195.929      305.57919     -49890.35       187.57803      191.55504      421.97608    
     48700  -50173.097      305.60949     -49867.488      187.55735      191.53942      422.14582    
     48800  -50150.657      301.05274     -49849.604      187.53558      191.52278      422.31556    
     48900  -50130.434      302.62981     -49827.804      187.51518      191.50892      422.4853     
     49000  -50104.585      302.91359     -49801.671      187.4937       191.49537      422.65504    
     49100  -50077.988      303.86921     -49774.119      187.47061      191.48018      422.82478    
     49200  -50055.886      306.09845     -49749.787      187.44908      191.46744      422.99452    
     49300  -50030.097      303.73372     -49726.363      187.42705      191.45611      423.16426    
     49400  -50009.425      305.22053     -49704.204      187.40291      191.44208      423.33401    
     49500  -49983.62       298.68333     -49684.937      187.38049      191.43001      423.50375    
     49600  -49961.193      297.78805     -49663.405      187.35849      191.42002      423.67349    
     49700  -49936.65       305.11788     -49631.532      187.33338      191.40628      423.84323    
     49800  -49910.507      306.68504     -49603.822      187.31009      191.39361      424.01297    
     49900  -49887.649      305.52179     -49582.128      187.28877      191.38404      424.18271    
     50000  -49866.087      303.06848     -49563.019      187.26457      191.37169      424.35245    
     50100  -49844.875      304.03484     -49540.84       187.24093      191.35886      424.52219    
     50200  -49820.888      305.72827     -49515.16       187.22075      191.34937      424.69193    
     50300  -49791.592      305.19858     -49486.393      187.19704      191.3367       424.86167    
     50400  -49767.562      313.35053     -49454.211      187.17271      191.32212      425.03142    
     50500  -49745.145      311.86901     -49433.276      187.15414      191.31254      425.20116    
     50600  -49719.545      305.80955     -49413.735      187.13332      191.30093      425.3709     
     50700  -49697.271      302.94702     -49394.324      187.10995      191.28525      425.54064    
     50800  -49674.658      301.70787     -49372.95       187.09169      191.27375      425.71038    
     50900  -49653.3        304.0705      -49349.23       187.07324      191.26183      425.88012    
     51000  -49630.253      308.56859     -49321.685      187.05105      191.24469      426.04986    
     51100  -49598.924      307.76141     -49291.162      187.0331       191.23065      426.2196     
     51200  -49576.302      308.2356      -49268.066      187.0179       191.21797      426.38934    
     51300  -49555.656      305.37084     -49250.286      186.99839      191.20086      426.55908    
     51400  -49531.827      304.33112     -49227.496      186.98081      191.18429      426.72882    
     51500  -49504.656      300.85923     -49203.797      186.96643      191.16957      426.89857    
     51600  -49478.838      298.68122     -49180.157      186.94968      191.15129      427.06831    
     51700  -49456.738      298.4417      -49158.296      186.93244      191.13231      427.23805    
     51800  -49431.715      298.0434      -49133.672      186.91972      191.11699      427.40779    
     51900  -49408.779      304.30666     -49104.472      186.90684      191.09914      427.57753    
     52000  -49386.826      310.85073     -49075.975      186.88998      191.07748      427.74727    
     52100  -49362.299      307.76354     -49054.535      186.87784      191.05965      427.91701    
     52200  -49339.075      303.05319     -49036.022      186.86673      191.04121      428.08675    
     52300  -49317.239      305.85288     -49011.386      186.85241      191.01917      428.25649    
     52400  -49290.492      304.66482     -48985.827      186.83976      190.99865      428.42623    
     52500  -49264.042      304.62815     -48959.414      186.82958      190.97971      428.59598    
     52600  -49237.939      301.32669     -48936.612      186.81753      190.95771      428.76572    
     52700  -49214.076      296.95258     -48917.123      186.8042       190.93492      428.93546    
     52800  -49193.871      300.63966     -48893.231      186.79535      190.91659      429.1052     
     52900  -49171.621      305.58305     -48866.038      186.78429      190.895        429.27494    
     53000  -49144.034      309.20498     -48834.829      186.77084      190.87143      429.44468    
     53100  -49118.17       309.73913     -48808.431      186.76159      190.8529       429.61442    
     53200  -49098.912      308.16425     -48790.747      186.75132      190.83182      429.78416    
     53300  -49071.987      303.42548     -48768.561      186.73718      190.80809      429.9539     
     53400  -49047.092      300.90883     -48746.183      186.72735      190.78962      430.12364    
     53500  -49026.432      303.1886      -48723.243      186.71777      190.77057      430.29339    
     53600  -49005.703      305.7446      -48699.958      186.70385      190.74807      430.46313    
     53700  -48979.948      303.15083     -48676.797      186.69157      190.72821      430.63287    
     53800  -48952.958      301.01232     -48651.946      186.68073      190.7102       430.80261    
     53900  -48928.642      306.60084     -48622.042      186.66627      190.68935      430.97235    
     54000  -48898.103      304.44887     -48593.654      186.65288      190.6707       431.14209    
     54100  -48879.275      306.76563     -48572.509      186.64152      190.65442      431.31183    
     54200  -48856.651      303.80089     -48552.85       186.62671      190.63586      431.48157    
     54300  -48834.186      306.48045     -48527.705      186.61105      190.61773      431.65131    
     54400  -48805.43       303.67447     -48501.755      186.59773      190.60256      431.82105    
     54500  -48779.094      302.15855     -48476.936      186.58189      190.58514      431.9908     
     54600  -48755.715      300.03503     -48455.68       186.56435      190.56802      432.16054    
     54700  -48735.73       301.82002     -48433.91       186.55003      190.55481      432.33028    
     54800  -48709.479      301.77178     -48407.707      186.53347      190.5399       432.50002    
     54900  -48681.513      306.62423     -48374.889      186.51344      190.52252      432.66976    
     55000  -48655.011      307.60135     -48347.41       186.49701      190.50961      432.8395     
     55100  -48631.069      303.9558      -48327.113      186.47999      190.49741      433.00924    
     55200  -48613.038      307.58965     -48305.448      186.45959      190.48157      433.17898    
     55300  -48585.393      302.12624     -48283.267      186.44166      190.46933      433.34872    
     55400  -48564.652      304.83981     -48259.812      186.42355      190.45829      433.51846    
     55500  -48542.003      304.1923      -48237.811      186.40234      190.44439      433.68821    
     55600  -48516.698      299.70627     -48216.992      186.38408      190.43272      433.85795    
     55700  -48497.262      302.73683     -48194.526      186.36429      190.42204      434.02769    
     55800  -48467.194      301.80549     -48165.389      186.34226      190.40819      434.19743    
     55900  -48438.253      306.23265     -48132.02       186.32139      190.39579      434.36717    
     56000  -48412.89       306.90385     -48105.986      186.30235      190.38618      434.53691    
     56100  -48389.09       303.87725     -48085.213      186.28205      190.37553      434.70665    
     56200  -48369.667      306.7764      -48062.891      186.26078      190.36309      434.87639    
     56300  -48344.464      306.41015     -48038.054      186.2407       190.35229      435.04613    
     56400  -48319.41       306.54248     -48012.867      186.22092      190.34278      435.21587    
     56500  -48291.873      300.58081     -47991.293      186.19806      190.3294       435.38561    
     56600  -48268.34       298.33283     -47970.007      186.17802      190.31801      435.55536    
     56700  -48245.635      303.63576     -47941.999      186.15942      190.30886      435.7251     
     56800  -48215.616      303.99184     -47911.624      186.13773      190.2956       435.89484    
     56900  -48190.74       309.76605     -47880.974      186.1164       190.28221      436.06458    
     57000  -48164.164      313.89633     -47850.268      186.09736      190.27118      436.23432    
     57100  -48139.055      307.67572     -47831.379      186.07662      190.25735      436.40406    
     57200  -48118.281      306.67711     -47811.604      186.05765      190.24532      436.5738     
     57300  -48098.077      307.7491      -47790.328      186.03857      190.23251      436.74354    
     57400  -48070.828      303.476       -47767.352      186.0188       190.21766      436.91328    
     57500  -48045.034      302.30502     -47742.729      186.00095      190.20494      437.08302    
     57600  -48018.894      301.40936     -47717.485      185.98197      190.18961      437.25277    
     57700  -47995.783      302.117       -47693.666      185.96384      190.17404      437.42251    
     57800  -47972.638      301.12695     -47671.511      185.94714      190.15947      437.59225    
     57900  -47945.757      300.63905     -47645.118      185.92924      190.14305      437.76199    
     58000  -47915.192      302.85572     -47612.336      185.91215      190.126        437.93173    
     58100  -47888.396      306.87917     -47581.517      185.89535      190.10863      438.10147    
     58200  -47866.514      307.13906     -47559.375      185.87943      190.09207      438.27121    
     58300  -47843.441      307.46202     -47535.979      185.86454      190.07449      438.44095    
     58400  -47819.789      305.88688     -47513.902      185.84825      190.05434      438.61069    
     58500  -47795.483      304.13837     -47491.345      185.83384      190.03703      438.78043    
     58600  -47772.925      305.95108     -47466.974      185.8206       190.01962      438.95018    
     58700  -47742.179      300.29862     -47441.881      185.80477      189.99764      439.11992    
     58800  -47722.603      304.02403     -47418.579      185.79075      189.97836      439.28966    
     58900  -47695.286      297.45692     -47397.829      185.7792       189.96085      439.4594     
     59000  -47672.109      302.67886     -47369.43       185.76507      189.93887      439.62914    
     59100  -47643.072      304.0282      -47339.044      185.75074      189.91709      439.79888    
     59200  -47614.671      304.40811     -47310.263      185.7387       189.89748      439.96862    
     59300  -47591.309      305.70747     -47285.602      185.72506      189.87611      440.13836    
     59400  -47566.343      305.21824     -47261.125      185.71092      189.85305      440.3081     
     59500  -47541.001      304.51831     -47236.483      185.69909      189.83319      440.47784    
     59600  -47515.343      304.08877     -47211.254      185.68597      189.81173      440.64759    
     59700  -47490.072      304.76665     -47185.306      185.67201      189.7892       440.81733    
     59800  -47465.951      306.60165     -47159.349      185.66035      189.76921      440.98707    
     59900  -47438.719      304.47657     -47134.242      185.64548      189.74619      441.15681    
     60000  -47413.339      303.49771     -47109.841      185.63171      189.72494      441.32655    
     60100  -47386.936      303.86063     -47083.075      185.61794      189.70504      441.49629    
     60200  -47365.015      308.70681     -47056.308      185.60328      189.68284      441.66603    
     60300  -47333.451      303.60448     -47029.847      185.58912      189.66216      441.83577    
     60400  -47310.659      304.85069     -47005.808      185.57406      189.6418       442.00551    
     60500  -47285.775      304.99264     -46980.782      185.55849      189.62085      442.17525    
     60600  -47259.934      306.51554     -46953.418      185.5434       189.60043      442.345      
     60700  -47233.065      305.36976     -46927.695      185.52752      189.58096      442.51474    
     60800  -47211.526      309.12284     -46902.403      185.51141      189.56077      442.68448    
     60900  -47181.348      306.02069     -46875.327      185.49455      189.54058      442.85422    
     61000  -47154.412      305.58729     -46848.825      185.47884      189.5226       443.02396    
     61100  -47131.401      307.41537     -46823.985      185.4612       189.50341      443.1937     
     61200  -47102.297      304.49864     -46797.798      185.44271      189.48362      443.36344    
     61300  -47074.003      303.49402     -46770.509      185.42629      189.46656      443.53318    
     61400  -47047.743      303.27919     -46744.463      185.40698      189.44783      443.70292    
     61500  -47022.385      304.39848     -46717.987      185.38748      189.42943      443.87266    
     61600  -46996.118      305.30773     -46690.81       185.37089      189.41326      444.0424     
     61700  -46968.688      304.34494     -46664.343      185.35035      189.39543      444.21215    
     61800  -46940.762      303.00667     -46637.755      185.32985      189.37821      444.38189    
     61900  -46917.5        305.45936     -46612.04       185.31111      189.3621       444.55163    
     62000  -46891.259      305.7615      -46585.498      185.28965      189.34414      444.72137    
     62100  -46863.33       305.21398     -46558.116      185.26926      189.32864      444.89111    
     62200  -46834.776      304.17312     -46530.603      185.24907      189.31387      445.06085    
     62300  -46808.731      304.34746     -46504.383      185.22585      189.29508      445.23059    
     62400  -46785.021      308.18939     -46476.832      185.20532      189.27978      445.40033    
     62500  -46758.31       308.49034     -46449.82       185.18472      189.26554      445.57007    
     62600  -46725.414      302.2392      -46423.175      185.16031      189.24733      445.73981    
     62700  -46701.413      306.13238     -46395.281      185.13913      189.23188      445.90956    
     62800  -46675.924      307.89987     -46368.024      185.11823      189.21734      446.0793     
     62900  -46647.088      306.47955     -46340.609      185.09373      189.20038      446.24904    
     63000  -46619.195      305.74702     -46313.448      185.07202      189.18479      446.41878    
     63100  -46594.051      307.42277     -46286.628      185.05095      189.1694       446.58852    
     63200  -46562.963      303.52315     -46259.44       185.02628      189.15169      446.75826    
     63300  -46539.145      307.06034     -46232.084      185.00531      189.13755      446.928      
     63400  -46510.594      306.00424     -46204.59       184.98335      189.12125      447.09774    
     63500  -46477.701      301.6613      -46176.04       184.95935      189.10221      447.26748    
     63600  -46454.392      306.70881     -46147.683      184.93928      189.08826      447.43722    
     63700  -46424.62       305.4615      -46119.158      184.9165       189.07099      447.60697    
     63800  -46395.823      304.71991     -46091.103      184.89272      189.05151      447.77671    
     63900  -46366.899      303.77008     -46063.129      184.87331      189.03688      447.94645    
     64000  -46340.082      304.55617     -46035.526      184.85124      189.01911      448.11619    
     64100  -46309.917      303.34256     -46006.575      184.82849      188.99978      448.28593    
     64200  -46285.014      306.70353     -45978.311      184.80909      188.98331      448.45567    
     64300  -46257.958      308.07322     -45949.885      184.78748      188.96482      448.62541    
     64400  -46226.757      307.44397     -45919.313      184.76531      188.94456      448.79515    
     64500  -46199.13       309.31153     -45889.818      184.74604      188.92688      448.96489    
     64600  -46167.348      305.86891     -45861.479      184.72572      188.90792      449.13463    
     64700  -46136.785      303.74314     -45833.042      184.70502      188.88761      449.30438    
     64800  -46108.973      305.75863     -45803.214      184.68494      188.86777      449.47412    
     64900  -46078.756      304.85472     -45773.902      184.66598      188.8483       449.64386    
     65000  -46053.041      308.68136     -45744.36       184.64503      188.82615      449.8136     
     65100  -46021.348      306.43036     -45714.918      184.62692      188.80677      449.98334    
     65200  -45989.516      304.09295     -45685.423      184.60881      188.78648      450.15308    
     65300  -45958.414      302.87343     -45655.541      184.58771      188.76263      450.32282    
     65400  -45934.014      308.10401     -45625.91       184.57047      188.74224      450.49256    
     65500  -45900.813      304.21319     -45596.599      184.55305      188.72114      450.6623     
     65600  -45874.212      307.28946     -45566.923      184.53251      188.69642      450.83204    
     65700  -45841.734      305.7976      -45535.937      184.51576      188.67514      451.00179    
     65800  -45814.417      308.37749     -45506.039      184.49936      188.65422      451.17153    
     65900  -45780.531      304.9828      -45475.549      184.47984      188.62959      451.34127    
     66000  -45752.297      308.19934     -45444.098      184.46306      188.60728      451.51101    
     66100  -45720.182      306.14285     -45414.039      184.44671      188.58488      451.68075    
     66200  -45688.214      305.02321     -45383.191      184.42732      188.55964      451.85049    
     66300  -45656.796      304.66126     -45352.134      184.41203      188.53818      452.02023    
     66400  -45625.053      304.39285     -45320.66       184.39545      188.51599      452.18997    
     66500  -45596.871      308.59626     -45288.274      184.37568      188.4901       452.35971    
     66600  -45562.033      305.19347     -45256.839      184.36112      188.46927      452.52945    
     66700  -45529.084      302.37758     -45226.707      184.34457      188.44655      452.69919    
     66800  -45497.732      303.17359     -45194.559      184.3238       188.42054      452.86894    
     66900  -45470.664      307.88025     -45162.784      184.30966      188.40129      453.03868    
     67000  -45440.676      309.58539     -45131.09       184.29165      188.37826      453.20842    
     67100  -45405.945      307.47092     -45098.474      184.27171      188.35286      453.37816    
     67200  -45371.979      305.72304     -45066.256      184.25779      188.3347       453.5479     
     67300  -45340.79       306.11655     -45034.673      184.23787      188.31113      453.71764    
     67400  -45309.049      306.4647      -45002.584      184.21877      188.28783      453.88738    
     67500  -45275.691      306.85803     -44968.833      184.20424      188.26852      454.05712    
     67600  -45245.025      308.81485     -44936.21       184.18361      188.24476      454.22686    
     67700  -45210.494      307.85524     -44902.638      184.16445      188.22404      454.3966     
     67800  -45174.882      305.88136     -44869          184.14778      188.20497      454.56635    
     67900  -45143.069      306.42843     -44836.641      184.12758      188.18187      454.73609    
     68000  -45111.555      307.94743     -44803.608      184.10942      188.16169      454.90583    
     68100  -45077.416      307.08589     -44770.33       184.09033      188.14284      455.07557    
     68200  -45038.298      302.10037     -44736.197      184.06963      188.12192      455.24531    
     68300  -45012.464      310.28126     -44702.182      184.05181      188.10381      455.41505    
     68400  -44974.859      305.07165     -44669.787      184.03268      188.08439      455.58479    
     68500  -44942.24       308.29469     -44633.946      184.01183      188.06491      455.75453    
     68600  -44909.823      310.3405      -44599.482      183.99256      188.04801      455.92427    
     68700  -44873.488      307.57626     -44565.912      183.97262      188.02926      456.09401    
     68800  -44838.893      308.06382     -44530.829      183.95229      188.01048      456.26376    
     68900  -44801.575      305.31653     -44496.259      183.93221      187.99341      456.4335     
     69000  -44768.599      306.31335     -44462.285      183.91158      187.97616      456.60324    
     69100  -44733.924      306.96034     -44426.964      183.89135      187.95904      456.77298    
     69200  -44700.834      309.67656     -44391.157      183.87223      187.94291      456.94272    
     69300  -44662.06       305.61332     -44356.447      183.85063      187.92493      457.11246    
     69400  -44631.767      309.40608     -44322.361      183.83024      187.90908      457.2822     
     69500  -44592.774      307.00773     -44285.767      183.81062      187.89376      457.45194    
     69600  -44557.544      306.6711      -44250.873      183.78927      187.87629      457.62168    
     69700  -44525.715      310.91022     -44214.805      183.76891      187.86022      457.79142    
     69800  -44486.45       307.54947     -44178.901      183.75001      187.8462       457.96117    
     69900  -44450.605      308.56234     -44142.043      183.72833      187.82942      458.13091    
     70000  -44414.961      309.58822     -44105.372      183.70844      187.81374      458.30065    
     70100  -44380.677      313.1378      -44067.539      183.68937      187.79879      458.47039    
     70200  -44338.341      307.39875     -44030.942      183.66804      187.78256      458.64013    
     70300  -44306.588      312.92315     -43993.665      183.6489       187.76784      458.80987    
     70400  -44267.549      310.39182     -43957.157      183.6305       187.75338      458.97961    
     70500  -44234.247      312.70376     -43921.543      183.61053      187.73717      459.14935    
     70600  -44190.924      307.24385     -43883.681      183.59117      187.7223       459.31909    
     70700  -44161.59       313.80145     -43847.789      183.57302      187.70774      459.48883    
     70800  -44120.177      310.361       -43809.816      183.55407      187.69187      459.65858    
     70900  -44077.103      305.1082      -43771.994      183.53556      187.6767       459.82832    
     71000  -44045.949      310.36993     -43735.58       183.51817      187.66295      459.99806    
     71100  -44008.105      310.71047     -43697.395      183.50009      187.64735      460.1678     
     71200  -43966.11       308.54031     -43657.57       183.48251      187.63141      460.33754    
     71300  -43933.817      315.75947     -43618.058      183.46593      187.61695      460.50728    
     71400  -43890.791      310.59238     -43580.199      183.44813      187.60144      460.67702    
     71500  -43853.654      312.90865     -43540.745      183.43138      187.58582      460.84676    
     71600  -43813.951      313.1218      -43500.83       183.41628      187.5708       461.0165     
     71700  -43777.75       316.72751     -43461.023      183.39999      187.55523      461.18624    
     71800  -43736.818      314.21043     -43422.608      183.38314      187.53927      461.35598    
     71900  -43695.9        313.54828     -43382.352      183.3686       187.52452      461.52573    
     72000  -43661.227      316.26862     -43344.959      183.35397      187.50855      461.69547    
     72100  -43617.603      314.21996     -43303.383      183.33823      187.49203      461.86521    
     72200  -43582.62       317.37453     -43265.246      183.32383      187.47718      462.03495    
     72300  -43537.825      312.87823     -43224.947      183.30971      187.46129      462.20469    
     72400  -43506.858      318.61979     -43188.238      183.29566      187.44514      462.37443    
     72500  -43461.141      313.27135     -43147.87       183.28201      187.42954      462.54417    
     72600  -43418.703      312.14644     -43106.557      183.26823      187.41384      462.71391    
[...]
     81600  -56746.232      325.02647     -56421.205      184.10188      188.09336      477.9906     
     81700  -56748.792      324.58394     -56424.208      184.14183      188.14311      478.16034    
     81800  -56777.082      305.59973     -56471.483      184.17783      188.17931      478.33008    
     81900  -56806.429      287.48918     -56518.94       184.20227      188.21723      478.49982    
     82000  -56817.184      282.92702     -56534.257      184.22801      188.24885      478.66957    
     82100  -56820.953      302.16391     -56518.789      184.2467       188.27017      478.83931    
     82200  -56825.621      323.27463     -56502.346      184.26897      188.28871      479.00905    
     82300  -56834.011      313.31184     -56520.699      184.29878      188.30807      479.17879    
     82400  -56854.637      300.69718     -56553.94       184.32661      188.32612      479.34853    
     82500  -56862.7        291.15622     -56571.544      184.36217      188.35557      479.51827    
     82600  -56876.263      306.95969     -56569.303      184.39447      188.38129      479.68801    
     82700  -56883.083      313.83444     -56569.248      184.42344      188.39934      479.85775    
     82800  -56899.485      310.74808     -56588.737      184.44721      188.40578      480.02749    
     82900  -56909.541      295.39374     -56614.148      184.47712      188.42419      480.19723    
     83000  -56915.607      293.46898     -56622.138      184.50484      188.44584      480.36697    
     83100  -56910.522      298.8651      -56611.657      184.53149      188.47112      480.53672    
     83200  -56914.016      317.718       -56596.298      184.54876      188.48692      480.70646    
     83300  -56898.961      302.03834     -56596.923      184.56855      188.50242      480.8762     
     83400  -56895.286      298.71446     -56596.571      184.59658      188.52349      481.04594    
     83500  -56897.443      307.12986     -56590.313      184.62049      188.54327      481.21568    
     83600  -56893.334      305.20204     -56588.132      184.63764      188.56236      481.38542    
     83700  -56892.741      303.05532     -56589.686      184.65537      188.58163      481.55516    
     83800  -56891.499      297.67048     -56593.828      184.66885      188.59775      481.7249     
     83900  -56897.534      305.16603     -56592.368      184.68352      188.61767      481.89464    
     84000  -56897.829      306.15929     -56591.669      184.69703      188.63686      482.06438    
     84100  -56898.227      302.40668     -56595.821      184.71082      188.65775      482.23413    
     84200  -56902.363      302.87915     -56599.483      184.72493      188.6825       482.40387    
     84300  -56904.456      303.4735      -56600.983      184.73481      188.70355      482.57361    
     84400  -56896.982      298.70543     -56598.277      184.75008      188.73516      482.74335    
     84500  -56890.638      298.39483     -56592.243      184.76082      188.7595       482.91309    
     84600  -56878.533      300.79914     -56577.734      184.76151      188.77086      483.08283    
     84700  -56869.669      313.3281      -56556.341      184.77646      188.79755      483.25257    
     84800  -56863.041      315.92151     -56547.12       184.77819      188.80995      483.42231    
     84900  -56855.285      301.54941     -56553.736      184.79336      188.82554      483.59205    
     85000  -56869.378      304.33977     -56565.039      184.80742      188.84737      483.76179    
     85100  -56880.708      305.33481     -56575.373      184.8182       188.8596       483.93154    
     85200  -56886.226      302.37219     -56583.854      184.84031      188.88102      484.10128    
     85300  -56896.282      303.16326     -56593.118      184.85384      188.8925       484.27102    
     85400  -56905.936      301.18652     -56604.75       184.86948      188.90869      484.44076    
     85500  -56914.201      298.568       -56615.633      184.88606      188.92886      484.6105     
     85600  -56919.472      302.74161     -56616.73       184.89393      188.94253      484.78024    
     85700  -56905.74       298.40383     -56607.337      184.90144      188.96012      484.94998    
     85800  -56897.35       307.36914     -56589.981      184.90588      188.98137      485.11972    
     85900  -56885.095      304.66305     -56580.432      184.91049      189.00533      485.28946    
     86000  -56888.116      307.70618     -56580.41       184.9169       189.03196      485.4592     
     86100  -56893.496      304.47635     -56589.02       184.92733      189.0572       485.62895    
     86200  -56888.889      294.36797     -56594.521      184.93422      189.08394      485.79869    
     86300  -56892.377      305.03072     -56587.346      184.93546      189.10284      485.96843    
     86400  -56892.991      313.71078     -56579.281      184.94119      189.12185      486.13817    
     86500  -56900.34       310.73364     -56589.606      184.94233      189.13742      486.30791    
     86600  -56913.183      301.29343     -56611.889      184.94363      189.15366      486.47765    
     86700  -56927.404      298.49302     -56628.911      184.9536       189.17483      486.64739    
     86800  -56931.455      298.77377     -56632.681      184.96424      189.18874      486.81713    
     86900  -56925.659      300.79625     -56624.863      184.97597      189.20108      486.98687    
     87000  -56918.219      304.76953     -56613.45       184.99002      189.21322      487.15661    
     87100  -56916.378      309.56694     -56606.811      184.99784      189.21924      487.32636    
     87200  -56910.337      302.95291     -56607.385      185.01209      189.23246      487.4961     
     87300  -56905.894      299.07567     -56606.819      185.02236      189.23425      487.66584    
     87400  -56897.844      298.54333     -56599.301      185.03348      189.23494      487.83558    
     87500  -56888.888      304.35075     -56584.537      185.05209      189.24148      488.00532    
     87600  -56883.958      311.99683     -56571.961      185.06835      189.23785      488.17506    
     87700  -56885.788      312.97175     -56572.816      185.09208      189.23761      488.3448     
     87800  -56899.054      311.20031     -56587.854      185.11815      189.23724      488.51454    
     87900  -56910.957      302.24236     -56608.714      185.14403      189.23451      488.68428    
     88000  -56915.802      294.22814     -56621.574      185.1732       189.23132      488.85402    
     88100  -56917.932      300.56189     -56617.37       185.19922      189.22455      489.02376    
     88200  -56910.4        306.77486     -56603.625      185.22575      189.21868      489.19351    
     88300  -56909.584      313.22981     -56596.354      185.2515       189.21581      489.36325    
     88400  -56909.146      307.27833     -56601.868      185.27482      189.20904      489.53299    
     88500  -56909.451      298.26318     -56611.188      185.29942      189.20753      489.70273    
     88600  -56910.348      297.8269      -56612.521      185.32386      189.20882      489.87247    
     88700  -56906.282      303.80705     -56602.475      185.34105      189.2095       490.04221    
     88800  -56900.135      307.79197     -56592.343      185.35614      189.21345      490.21195    
     88900  -56904.686      310.67714     -56594.009      185.36775      189.22218      490.38169    
     89000  -56917.272      306.85675     -56610.415      185.37495      189.23049      490.55143    
     89100  -56927.16       297.78713     -56629.373      185.38065      189.24008      490.72117    
     89200  -56928.063      293.15665     -56634.906      185.38594      189.24962      490.89092    
     89300  -56928.247      302.39157     -56625.856      185.39192      189.25961      491.06066    
     89400  -56921.218      307.92394     -56613.294      185.39708      189.27083      491.2304     
     89500  -56920.026      309.20411     -56610.821      185.40305      189.28215      491.40014    
     89600  -56923.142      302.77465     -56620.367      185.4087       189.29564      491.56988    
     89700  -56920.181      293.33548     -56626.845      185.4107       189.30494      491.73962    
     89800  -56913.739      296.01394     -56617.725      185.41575      189.32059      491.90936    
     89900  -56906.03       305.70885     -56600.321      185.4184       189.33744      492.0791     
     90000  -56898.667      312.05233     -56586.615      185.41769      189.34945      492.24884    
     90100  -56898.328      308.3103      -56590.018      185.42317      189.36677      492.41858    
     90200  -56905.898      301.41549     -56604.482      185.42396      189.37816      492.58833    
     90300  -56918.184      298.40158     -56619.783      185.42998      189.39092      492.75807    
     90400  -56922.574      299.11584     -56623.458      185.43306      189.40188      492.92781    
     90500  -56919.655      302.06695     -56617.588      185.43391      189.41017      493.09755    
     90600  -56923.323      311.97341     -56611.35       185.43599      189.42248      493.26729    
     90700  -56921.517      308.13155     -56613.386      185.43812      189.43453      493.43703    
     90800  -56925.986      303.62432     -56622.362      185.44101      189.44584      493.60677    
     90900  -56926.273      296.98086     -56629.292      185.44369      189.45461      493.77651    
     91000  -56928.165      302.46639     -56625.699      185.44721      189.46526      493.94625    
     91100  -56919.686      305.84028     -56613.846      185.45013      189.47844      494.11599    
     91200  -56913.335      307.34962     -56605.986      185.45178      189.49277      494.28574    
     91300  -56913.374      305.49288     -56607.881      185.44966      189.50198      494.45548    
     91400  -56914.407      300.30994     -56614.097      185.44812      189.50858      494.62522    
     91500  -56917.561      301.78714     -56615.774      185.44877      189.51659      494.79496    
     91600  -56917.698      303.70583     -56613.992      185.45228      189.52935      494.9647     
     91700  -56918.19       305.46673     -56612.723      185.45107      189.53367      495.13444    
     91800  -56926.209      308.02684     -56618.182      185.45553      189.54349      495.30418    
     91900  -56933.7        303.12361     -56630.576      185.46426      189.55605      495.47392    
     92000  -56939.956      298.11335     -56641.842      185.46355      189.55619      495.64366    
     92100  -56944.104      299.72274     -56644.381      185.47455      189.56662      495.8134     
     92200  -56933.661      298.96075     -56634.7        185.484        189.57048      495.98315    
     92300  -56922.554      305.65469     -56616.9        185.48779      189.56525      496.15289    
     92400  -56917.558      313.15157     -56604.406      185.50452      189.56967      496.32263    
     92500  -56914.409      309.47666     -56604.933      185.51389      189.56618      496.49237    
     92600  -56914.865      301.78912     -56613.076      185.52331      189.56112      496.66211    
     92700  -56917.292      301.03684     -56616.256      185.53843      189.56         496.83185    
     92800  -56912.693      301.16814     -56611.525      185.54875      189.55065      497.00159    
     92900  -56917.36       310.48649     -56606.873      185.5667       189.54535      497.17133    
     93000  -56916.483      305.89546     -56610.587      185.58662      189.53778      497.34107    
     93100  -56924.561      304.40861     -56620.152      185.5961       189.51843      497.51081    
     93200  -56930.44       300.19724     -56630.243      185.61302      189.51072      497.68055    
     93300  -56932.256      300.13859     -56632.117      185.6276       189.49914      497.8503     
     93400  -56926.638      302.60011     -56624.038      185.63975      189.48487      498.02004    
     93500  -56915.366      304.07761     -56611.288      185.65446      189.47549      498.18978    
     93600  -56912.214      309.14834     -56603.065      185.66781      189.46572      498.35952    
     93700  -56910.262      305.15252     -56605.109      185.68059      189.45689      498.52926    
     93800  -56917.387      302.58915     -56614.798      185.69371      189.45187      498.699      
     93900  -56918.874      296.70039     -56622.173      185.6999       189.44469      498.86874    
     94000  -56924.745      304.60802     -56620.137      185.70364      189.44242      499.03848    
     94100  -56919.565      305.92422     -56613.641      185.70909      189.44201      499.20822    
     94200  -56920.972      308.59008     -56612.382      185.70968      189.44172      499.37796    
     94300  -56928.965      309.02873     -56619.936      185.70912      189.44355      499.54771    
     94400  -56931.625      298.74943     -56632.875      185.70985      189.44634      499.71745    
     94500  -56934.732      294.0024      -56640.729      185.70753      189.44804      499.88719    
     94600  -56938.187      300.00208     -56638.185      185.70406      189.45189      500.05693    
     94700  -56928.466      302.85878     -56625.607      185.7007       189.45787      500.22667    
     94800  -56923.408      308.98964     -56614.419      185.70093      189.46367      500.39641    
     94900  -56924.314      310.30965     -56614.005      185.69981      189.46814      500.56615    
     95000  -56921.73       300.32593     -56621.404      185.69485      189.4735       500.73589    
     95100  -56926.092      301.11536     -56624.977      185.68987      189.4778       500.90563    
     95200  -56921.465      303.03052     -56618.435      185.68619      189.48507      501.07537    
     95300  -56915.074      307.07074     -56608.003      185.68487      189.49386      501.24512    
     95400  -56916.747      310.71741     -56606.03       185.68081      189.50061      501.41486    
     95500  -56917.756      302.2983      -56615.458      185.67624      189.50625      501.5846     
     95600  -56928.25       298.66693     -56629.583      185.67409      189.51225      501.75434    
     95700  -56933.869      297.2067      -56636.662      185.67208      189.51451      501.92408    
     95800  -56929.317      297.22471     -56632.092      185.67289      189.51775      502.09382    
     95900  -56926.256      306.1028      -56620.154      185.67398      189.51993      502.26356    
     96000  -56919.297      310.21826     -56609.079      185.67177      189.52033      502.4333     
     96100  -56916.591      309.75638     -56606.835      185.67248      189.5224       502.60304    
     96200  -56918.072      304.89644     -56613.175      185.67049      189.51958      502.77278    
     96300  -56918.824      296.63438     -56622.19       185.66812      189.51431      502.94253    
     96400  -56923.886      299.17264     -56624.713      185.66937      189.51316      503.11227    
     96500  -56919.788      301.38991     -56618.398      185.66885      189.50669      503.28201    
     96600  -56922.92       310.60845     -56612.312      185.67326      189.50567      503.45175    
     96700  -56922.96       308.3652      -56614.595      185.67338      189.49926      503.62149    
     96800  -56929.338      303.74802     -56625.589      185.67114      189.4927       503.79123    
     96900  -56933.924      297.0098      -56636.914      185.67551      189.49029      503.96097    
     97000  -56938.916      298.28611     -56640.63       185.67495      189.48274      504.13071    
     97100  -56933.002      298.22001     -56634.782      185.67692      189.47598      504.30045    
     97200  -56933.293      309.56089     -56623.732      185.68035      189.46855      504.47019    
     97300  -56923.79       307.72456     -56616.066      185.68347      189.45639      504.63994    
     97400  -56921.068      306.01146     -56615.057      185.69094      189.44433      504.80968    
     97500  -56921.191      303.56209     -56617.629      185.69783      189.43139      504.97942    
     97600  -56918.254      299.57444     -56618.68       185.70796      189.41888      505.14916    
     97700  -56921.017      305.62247     -56615.395      185.71836      189.40267      505.3189     
     97800  -56920.945      309.30473     -56611.64       185.73171      189.38799      505.48864    
     97900  -56920.862      306.26906     -56614.593      185.74613      189.37414      505.65838    
     98000  -56930.991      306.8712      -56624.12       185.7573       189.35605      505.82812    
     98100  -56933.909      299.38688     -56634.522      185.7724       189.34227      505.99786    
     98200  -56936.141      299.11773     -56637.023      185.78132      189.32473      506.1676     
     98300  -56931.518      301.29977     -56630.219      185.78986      189.30682      506.33734    
     98400  -56926.697      306.99526     -56619.702      185.80125      189.29578      506.50709    
     98500  -56920.986      307.58859     -56613.398      185.80611      189.2815       506.67683    
     98600  -56914.339      301.68089     -56612.658      185.81163      189.27027      506.84657    
     98700  -56918.182      305.05417     -56613.128      185.81836      189.26322      507.01631    
     98800  -56913.36       301.47066     -56611.889      185.81702      189.25176      507.18605    
     98900  -56915.866      305.48438     -56610.381      185.81893      189.24856      507.35579    
     99000  -56918.599      306.85312     -56611.746      185.81588      189.24337      507.52553    
     99100  -56924.779      308.09179     -56616.687      185.80662      189.23453      507.69527    
     99200  -56924.699      301.06033     -56623.639      185.80298      189.23353      507.86501    
     99300  -56924.861      296.95812     -56627.903      185.79087      189.226        508.03475    
     99400  -56933.251      304.32041     -56628.931      185.78218      189.22307      508.2045     
     99500  -56930.382      300.55962     -56629.822      185.77454      189.22305      508.37424    
     99600  -56935.96       304.54944     -56631.41       185.75837      189.21692      508.54398    
     99700  -56935.277      302.70877     -56632.568      185.74457      189.21735      508.71372    
     99800  -56929.266      299.78664     -56629.479      185.73025      189.21603      508.88346    
     99900  -56923.825      302.28424     -56621.54       185.71268      189.21045      509.0532     
    100000  -56920.186      307.96966     -56612.216      185.69923      189.2092       509.22294    
Loop time of 1402.69 on 12 procs for 100000 steps with 7840 atoms

Performance: 6.160 ns/day, 3.896 hours/ns, 71.292 timesteps/s, 558.925 katom-step/s
92.3% CPU use with 12 MPI tasks x 1 OpenMP threads

MPI task timing breakdown:
Section |  min time  |  avg time  |  max time  |%varavg| %total
---------------------------------------------------------------
Pair    | 881.32     | 1054.3     | 1310.5     | 374.1 | 75.16
Neigh   | 3.5816     | 5.0609     | 8.7099     |  66.1 |  0.36
Comm    | 50.567     | 309.66     | 484.38     | 697.0 | 22.08
Output  | 0.37809    | 0.40697    | 0.44522    |   3.2 |  0.03
Modify  | 30.971     | 31.638     | 32.355     |   8.2 |  2.26
Other   |            | 1.591      |            |       |  0.11

Nlocal:        653.333 ave        1084 max         291 min
Histogram: 4 0 0 2 0 1 1 1 1 2
Nghost:           2226 ave        3615 max        1265 min
Histogram: 4 1 2 1 0 0 0 0 0 4
Neighs:              0 ave           0 max           0 min
Histogram: 12 0 0 0 0 0 0 0 0 0

Total # of neighbors = 0
Ave neighs/atom = 0
Neighbor list builds = 521
Dangerous builds = 0
Total wall time: 0:23:22
