LAMMPS (2 Aug 2023 - Update 3)
OMP_NUM_THREADS environment is not set. Defaulting to 1 thread. (src/comm.cpp:98)
  using 1 OpenMP thread(s) per MPI task
Reading data file ...
  orthogonal box = (-100 -100 -2.1416495) to (100 100 39.081159)
  4 by 3 by 1 MPI processor grid
  reading atoms ...
  1620 atoms
  read_data CPU = 0.129 seconds
Replication is creating a 1x1x11 = 11 times larger system...
  orthogonal box = (-100 -100 -2.1416495) to (100 100 451.30925)
  2 by 2 by 3 MPI processor grid
  17820 atoms
  replicate CPU = 0.002 seconds
System init for write_data ...
WARNING: Communication cutoff is 0.0. No ghost atoms will be generated. Atoms may get lost. (src/comm_brick.cpp:210)
Reading airebo potential file CH.airebo with DATE: 2011-10-25
Reading airebo potential file CH.airebo with DATE: 2011-10-25
Reading airebo potential file CH.airebo with DATE: 2011-10-25
Neighbor list info ...
  update: every = 1 steps, delay = 0 steps, check = yes
  max neighbors/atom: 2000, page size: 100000
  master list distance cutoff = 13.2
  ghost atom cutoff = 13.2
  binsize = 6.6, bins = 31 31 69
  6 neighbor lists, perpetual/occasional/extra = 6 0 0
  (1) pair airebo, perpetual, skip from (5)
      attributes: full, newton on, ghost
      pair build: skip/ghost
      stencil: none
      bin: none
  (2) pair airebo, perpetual, skip from (5)
      attributes: full, newton on, ghost
      pair build: skip/ghost
      stencil: none
      bin: none
  (3) pair airebo, perpetual, skip from (5)
      attributes: full, newton on, ghost
      pair build: skip/ghost
      stencil: none
      bin: none
  (4) pair lj/cut, perpetual, skip from (6)
      attributes: half, newton on, cut 13
      pair build: skip
      stencil: none
      bin: none
  (5) neighbor class addition, perpetual
      attributes: full, newton on, ghost
      pair build: full/bin/ghost
      stencil: full/ghost/bin/3d
      bin: standard
  (6) neighbor class addition, perpetual
      attributes: half, newton on, cut 13
      pair build: half/bin/atomonly/newton
      stencil: half/bin/3d
      bin: standard
Setting up sd style minimization ...
  Unit style    : metal
  Current step  : 0
Per MPI rank memory allocation (min/avg/max) = 15.85 | 16.48 | 17 Mbytes
   Step          Temp          E_pair         E_mol          TotEng         Press     
         0   0             -119347.2       0             -119347.2       3997.0868    
        24   0             -128012.21      0             -128012.21      81.021641    
Loop time of 4.92803 on 12 procs for 24 steps with 17820 atoms

69.7% CPU use with 12 MPI tasks x 1 OpenMP threads

Minimization stats:
  Stopping criterion = energy tolerance
  Energy initial, next-to-last, final = 
     -119347.199727482  -128002.101675448  -128012.211401089
  Force two-norm initial, final = 2770.2877 37.396696
  Force max component initial, final = 177.24911 2.7877205
  Final line search alpha, max atom move = 0.017949923 0.050039368
  Iterations, force evaluations = 24 43

MPI task timing breakdown:
Section |  min time  |  avg time  |  max time  |%varavg| %total
---------------------------------------------------------------
Pair    | 0.90324    | 1.2577     | 1.8894     |  26.1 | 25.52
Neigh   | 0          | 0          | 0          |   0.0 |  0.00
Comm    | 0.83721    | 1.4899     | 1.8573     |  25.0 | 30.23
Output  | 0          | 0          | 0          |   0.0 |  0.00
Modify  | 0          | 0          | 0          |   0.0 |  0.00
Other   |            | 2.18       |            |       | 44.24

Nlocal:           1485 ave        1546 max        1380 min
Histogram: 2 1 0 0 0 0 1 4 2 2
Nghost:        5486.33 ave        5612 max        5425 min
Histogram: 2 4 2 1 0 0 1 1 0 1
Neighs:              0 ave           0 max           0 min
Histogram: 12 0 0 0 0 0 0 0 0 0

Total # of neighbors = 0
Ave neighs/atom = 0
Neighbor list builds = 0
Dangerous builds = 0
Setting up Verlet run ...
  Unit style    : metal
  Current step  : 24
  Time step     : 0.001
Per MPI rank memory allocation (min/avg/max) = 16.47 | 17.17 | 18 Mbytes
   Step          Temp          E_pair         E_mol          TotEng         Press          Volume    
        24   300           -128012.21      0             -127321.23      121.71261      18138036     
Loop time of 0.0150042 on 12 procs for 0 steps with 17820 atoms

77.8% CPU use with 12 MPI tasks x 1 OpenMP threads

MPI task timing breakdown:
Section |  min time  |  avg time  |  max time  |%varavg| %total
---------------------------------------------------------------
Pair    | 0          | 0          | 0          |   0.0 |  0.00
Neigh   | 0          | 0          | 0          |   0.0 |  0.00
Comm    | 0          | 0          | 0          |   0.0 |  0.00
Output  | 0          | 0          | 0          |   0.0 |  0.00
Modify  | 0          | 0          | 0          |   0.0 |  0.00
Other   |            | 0.015      |            |       |100.00

Nlocal:           1485 ave        1554 max        1402 min
Histogram: 2 1 0 0 0 2 4 1 1 1
Nghost:           5488 ave        5591 max        5426 min
Histogram: 2 1 3 2 1 0 1 1 0 1
Neighs:              0 ave           0 max           0 min
Histogram: 12 0 0 0 0 0 0 0 0 0

Total # of neighbors = 0
Ave neighs/atom = 0
Neighbor list builds = 0
Dangerous builds = 0
WARNING: Dump 2 includes no atom IDs and is not sorted by ID. This may complicate post-processing tasks or visualization (src/dump.cpp:221)
Setting up Verlet run ...
  Unit style    : metal
  Current step  : 0
  Time step     : 0.001
Per MPI rank memory allocation (min/avg/max) = 17.97 | 18.67 | 19.5 Mbytes
   Step         PotEng         KinEng         TotEng           Lx             Ly             Lz      
         0  -128012.21      690.98596     -127321.23      200            200            453.4509     
       100  -127734.38      460.07691     -127274.3       199.98471      199.98621      453.67762    
       200  -127729.9       514.45926     -127215.44      199.9162       199.91972      453.90435    
       300  -127729.35      581.146       -127148.2       200.00517      200.01169      454.13108    
       400  -127695.6       615.62426     -127079.97      200.0048       200.02043      454.3578     
       500  -127634.91      609.45688     -127025.45      199.91485      199.94076      454.58453    
       600  -127665.28      696.92957     -126968.35      199.96468      200.00166      454.81125    
       700  -127654.44      733.64821     -126920.8       199.99143      200.03874      455.03798    
       800  -127626.2       717.49376     -126908.7       199.92986      199.98437      455.2647     
       900  -127596.8       690.49954     -126906.3       199.93908      200.0054       455.49143    
      1000  -127597.15      693.04024     -126904.11      199.94894      200.0173       455.71815    
      1100  -127618.2       692.67876     -126925.52      199.95199      200.01893      455.94488    
      1200  -127616.28      677.27992     -126939         199.91966      199.99483      456.1716     
      1300  -127607.49      680.93474     -126926.56      199.93472      200.01854      456.39833    
      1400  -127589.66      689.33166     -126900.32      199.95764      200.03912      456.62506    
      1500  -127584.91      689.34482     -126895.57      199.91833      199.99605      456.85178    
      1600  -127594.55      687.52201     -126907.03      199.93513      200.01763      457.07851    
      1700  -127611.68      691.26651     -126920.41      199.9325       200.01499      457.30523    
      1800  -127611.79      684.91594     -126926.87      199.92425      200.01138      457.53196    
      1900  -127609.19      692.62881     -126916.56      199.92196      200.02263      457.75868    
      2000  -127594.88      694.49919     -126900.38      199.90874      200.01266      457.98541    
      2100  -127590.95      697.5742      -126893.37      199.91477      200.01667      458.21213    
      2200  -127589.86      689.08122     -126900.78      199.90739      200.01519      458.43886    
      2300  -127612.9       698.7207      -126914.18      199.9053       200.01752      458.66558    
      2400  -127609.49      685.4947      -126924         199.90547      200.01573      458.89231    
      2500  -127612.68      686.60589     -126926.07      199.90421      200.00835      459.11904    
      2600  -127604.32      686.13987     -126918.18      199.90699      200.01014      459.34576    
      2700  -127596.52      688.91255     -126907.6       199.90358      200.00527      459.57249    
      2800  -127601.58      701.24243     -126900.33      199.90097      200.00439      459.79921    
      2900  -127600.82      697.97864     -126902.84      199.90105      200.00732      460.02594    
      3000  -127609.91      698.49225     -126911.41      199.89389      200.00308      460.25266    
      3100  -127601.54      682.71183     -126918.83      199.8873       200.00438      460.47939    
      3200  -127609.85      691.93984     -126917.91      199.88117      200.0068       460.70611    
      3300  -127603.24      692.17226     -126911.07      199.87289      200.00927      460.93284    
      3400  -127591.31      689.54033     -126901.77      199.86548      200.01143      461.15956    
      3500  -127585.54      693.07087     -126892.47      199.85583      200.00832      461.38629    
      3600  -127586.81      698.25541     -126888.56      199.85294      200.00405      461.61302    
      3700  -127590.6       693.1042      -126897.5       199.86077      200.00443      461.83974    
      3800  -127592.79      688.04487     -126904.74      199.86579      199.99494      462.06647    
      3900  -127591.13      685.49252     -126905.64      199.86904      199.98017      462.29319    
      4000  -127582.27      687.95217     -126894.32      199.87846      199.96751      462.51992    
      4100  -127575.56      699.05944     -126876.5       199.88432      199.95294      462.74664    
      4200  -127577.31      707.18591     -126870.12      199.88678      199.9399       462.97337    
      4300  -127571.8       691.45387     -126880.35      199.88819      199.93024      463.20009    
      4400  -127570.72      685.11931     -126885.6       199.88926      199.92856      463.42682    
      4500  -127556.38      679.36378     -126877.02      199.88433      199.92737      463.65354    
      4600  -127550.18      694.90023     -126855.28      199.87497      199.9261       463.88027    
      4700  -127525.55      691.68779     -126833.86      199.87078      199.93192      464.107      
      4800  -127524.57      699.60454     -126824.96      199.85807      199.93279      464.33372    
      4900  -127522.26      690.02404     -126832.24      199.84304      199.93843      464.56045    
      5000  -127532.03      690.21589     -126841.82      199.82734      199.94983      464.78717    
      5100  -127529.8       684.22332     -126845.57      199.80561      199.96095      465.0139     
      5200  -127522.46      683.8575      -126838.6       199.78965      199.97183      465.24062    
      5300  -127511.29      691.67424     -126819.62      199.77959      199.97846      465.46735    
      5400  -127503.51      698.47344     -126805.03      199.76601      199.97364      465.69407    
      5500  -127495.56      690.70499     -126804.86      199.75711      199.97024      465.9208     
      5600  -127502.31      691.631       -126810.68      199.74886      199.96891      466.14752    
      5700  -127489.56      679.0963      -126810.46      199.74245      199.96371      466.37425    
      5800  -127489.29      690.43524     -126798.86      199.7416       199.96068      466.60098    
      5900  -127468.7       690.04716     -126778.65      199.74366      199.95644      466.8277     
      6000  -127460.77      699.79108     -126760.98      199.74374      199.9507       467.05443    
      6100  -127456.3       697.57422     -126758.73      199.73919      199.94333      467.28115    
      6200  -127452.63      688.85382     -126763.78      199.73082      199.935        467.50788    
      6300  -127444.6       684.43343     -126760.17      199.72207      199.92984      467.7346     
      6400  -127436.41      691.50197     -126744.91      199.71552      199.93376      467.96133    
      6500  -127420.76      693.52461     -126727.24      199.70544      199.9378       468.18805    
      6600  -127408.99      693.77711     -126715.22      199.69081      199.93507      468.41478    
      6700  -127399.58      688.02471     -126711.55      199.68349      199.93534      468.6415     
      6800  -127394.46      685.69412     -126708.77      199.67623      199.93355      468.86823    
      6900  -127388.78      691.82089     -126696.96      199.66293      199.92648      469.09496    
      7000  -127375.29      692.37669     -126682.91      199.65389      199.92709      469.32168    
      7100  -127366.95      691.13091     -126675.82      199.64318      199.92564      469.54841    
      7200  -127353.68      685.51606     -126668.17      199.63324      199.9182       469.77513    
      7300  -127351.06      691.70709     -126659.36      199.62756      199.91275      470.00186    
      7400  -127347.47      694.75076     -126652.71      199.62158      199.90871      470.22858    
      7500  -127341.55      692.17672     -126649.38      199.61736      199.90642      470.45531    
      7600  -127324.98      682.77428     -126642.21      199.61144      199.90045      470.68203    
      7700  -127324.72      699.0388      -126625.68      199.60193      199.88883      470.90876    
      7800  -127301.86      695.23411     -126606.63      199.59447      199.88225      471.13548    
      7900  -127295.24      697.69026     -126597.55      199.58981      199.87494      471.36221    
      8000  -127282.75      691.61417     -126591.14      199.58607      199.86336      471.58893    
      8100  -127283.08      698.0474      -126585.03      199.58495      199.84902      471.81566    
      8200  -127272.01      688.72553     -126583.28      199.58148      199.83781      472.04239    
      8300  -127266.11      689.40901     -126576.7       199.57955      199.82841      472.26911    
      8400  -127252.8       688.4836      -126564.32      199.57654      199.8156       472.49584    
      8500  -127240.15      692.37949     -126547.78      199.57123      199.80061      472.72256    
      8600  -127219.59      692.88135     -126526.7       199.56676      199.78991      472.94929    
      8700  -127210.86      696.7971      -126514.07      199.56647      199.78053      473.17601    
      8800  -127200.31      689.96992     -126510.34      199.56641      199.76668      473.40274    
      8900  -127196.36      694.82213     -126501.54      199.56331      199.7496       473.62946    
      9000  -127183.73      688.21714     -126495.52      199.5603       199.73391      473.85619    
      9100  -127176.92      688.68022     -126488.24      199.55681      199.71753      474.08291    
      9200  -127163.36      692.93237     -126470.42      199.5547       199.70414      474.30964    
      9300  -127150.66      698.90601     -126451.75      199.55605      199.69417      474.53637    
      9400  -127137.67      696.4859      -126441.19      199.55273      199.67597      474.76309    
      9500  -127118.38      686.88654     -126431.49      199.54894      199.65905      474.98982    
      9600  -127114.21      694.13571     -126420.08      199.55157      199.6515       475.21654    
      9700  -127099.43      691.75491     -126407.67      199.54457      199.63495      475.44327    
      9800  -127087.42      691.14453     -126396.27      199.5369       199.61542      475.66999    
      9900  -127081.36      692.6629      -126388.69      199.53713      199.59957      475.89672    
     10000  -127068.03      687.68456     -126380.35      199.53602      199.5826       476.12344    
     10100  -127055.26      687.08313     -126368.18      199.53219      199.56507      476.35017    
     10200  -127041.24      695.72368     -126345.51      199.52658      199.54482      476.57689    
     10300  -127023.03      693.06601     -126329.96      199.52405      199.52933      476.80362    
     10400  -127011.6       690.4466      -126321.15      199.52764      199.51678      477.03035    
     10500  -127006.98      690.37223     -126316.61      199.52649      199.4971       477.25707    
     10600  -126993.17      688.07069     -126305.1       199.52372      199.4738       477.4838     
     10700  -126977.42      687.1258      -126290.29      199.52327      199.45476      477.71052    
     10800  -126970.75      696.73996     -126274.01      199.52027      199.43722      477.93725    
     10900  -126954.39      694.37932     -126260.01      199.51521      199.42011      478.16397    
     11000  -126945.8       690.309       -126255.49      199.5117       199.40208      478.3907     
     11100  -126931.55      684.28615     -126247.26      199.50675      199.38449      478.61742    
     11200  -126914.06      685.64286     -126228.42      199.50069      199.36546      478.84415    
     11300  -126900.52      691.89029     -126208.63      199.49584      199.34573      479.07087    
     11400  -126898.27      701.97593     -126196.29      199.4935       199.32589      479.2976     
     11500  -126881.18      692.24705     -126188.93      199.4909       199.30503      479.52433    
     11600  -126870.13      691.7939      -126178.34      199.48441      199.28285      479.75105    
     11700  -126862.36      693.99396     -126168.36      199.48131      199.26514      479.97778    
     11800  -126848.69      689.94188     -126158.75      199.48145      199.24683      480.2045     
     11900  -126825.34      678.58755     -126146.75      199.47796      199.21935      480.43123    
     12000  -126822.61      700.03638     -126122.57      199.47233      199.19299      480.65795    
     12100  -126793.15      690.67508     -126102.48      199.47005      199.17205      480.88468    
     12200  -126785.29      698.77261     -126086.52      199.4654       199.15144      481.1114     
     12300  -126773.12      693.09607     -126080.02      199.46139      199.13145      481.33813    
     12400  -126754.21      682.90449     -126071.31      199.46005      199.11304      481.56485    
     12500  -126741.11      689.11363     -126052         199.45713      199.09022      481.79158    
     12600  -126721.61      691.07218     -126030.54      199.45526      199.06497      482.01831    
     12700  -126702.58      690.69061     -126011.89      199.45194      199.03828      482.24503    
     12800  -126695.96      697.08825     -125998.87      199.44889      199.01451      482.47176    
     12900  -126677.05      690.52781     -125986.52      199.44559      198.99433      482.69848    
     13000  -126662.18      690.93664     -125971.24      199.43784      198.97234      482.92521    
     13100  -126646.64      692.4431      -125954.2       199.4326       198.95323      483.15193    
     13200  -126627.62      690.20965     -125937.41      199.42521      198.9325       483.37866    
     13300  -126615.6       692.30254     -125923.3       199.4172       198.9109       483.60538    
     13400  -126600.12      686.46453     -125913.65      199.40833      198.88824      483.83211    
     13500  -126588.4       688.84219     -125899.56      199.40014      198.86713      484.05883    
     13600  -126563.26      687.84994     -125875.41      199.39229      198.8462       484.28556    
     13700  -126547.47      696.46761     -125851         199.3845       198.81917      484.51229    
     13800  -126533.06      696.33613     -125836.72      199.38189      198.79215      484.73901    
     13900  -126517.08      689.33259     -125827.74      199.38363      198.76846      484.96574    
     14000  -126507.65      692.3585      -125815.29      199.38004      198.74437      485.19246    
     14100  -126488.73      691.1733      -125797.56      199.37163      198.7245       485.41919    
     14200  -126471.36      694.8406      -125776.52      199.35852      198.7052       485.64591    
     14300  -126448.88      687.04309     -125761.83      199.34487      198.68602      485.87264    
     14400  -126433.92      687.57552     -125746.35      199.33556      198.6668       486.09936    
     14500  -126420.23      690.87193     -125729.36      199.32744      198.64264      486.32609    
     14600  -126403.78      693.24732     -125710.53      199.3229       198.61668      486.55281    
     14700  -126384.25      697.21173     -125687.04      199.31878      198.5878       486.77954    
     14800  -126371.7       698.75003     -125672.95      199.31336      198.55551      487.00627    
     14900  -126360.7       694.52626     -125666.17      199.31244      198.5243       487.23299    
     15000  -126341.32      688.96368     -125652.36      199.31326      198.49468      487.45972    
     15100  -126327.03      692.2479      -125634.78      199.30886      198.46551      487.68644    
     15200  -126302.27      692.02162     -125610.25      199.29986      198.43894      487.91317    
     15300  -126287.46      700.48277     -125586.98      199.29467      198.41561      488.13989    
     15400  -126278.79      700.18583     -125578.61      199.291        198.39118      488.36662    
     15500  -126260.2       692.76614     -125567.43      199.28516      198.36593      488.59334    
     15600  -126242.8       691.70359     -125551.1       199.27439      198.34266      488.82007    
     15700  -126218.55      685.32298     -125533.23      199.25741      198.32211      489.04679    
     15800  -126203.59      695.37242     -125508.22      199.23694      198.30114      489.27352    
     15900  -126180.53      694.6992      -125485.83      199.22051      198.27896      489.50025    
     16000  -126171.09      695.78248     -125475.3       199.20883      198.25753      489.72697    
     16100  -126154.75      690.50404     -125464.25      199.20061      198.23635      489.9537     
     16200  -126137.97      692.88314     -125445.09      199.19328      198.21323      490.18042    
     16300  -126108.68      688.23314     -125420.45      199.18522      198.1892       490.40715    
     16400  -126088.5       692.73961     -125395.76      199.17336      198.16549      490.63387    
     16500  -126073         693.43386     -125379.57      199.15765      198.14452      490.8606     
     16600  -126062.73      689.54782     -125373.19      199.14214      198.12506      491.08732    
     16700  -126042.68      687.80873     -125354.87      199.12991      198.10392      491.31405    
     16800  -126019.27      687.8626      -125331.4       199.12049      198.08121      491.54077    
     16900  -126000.02      694.45189     -125305.57      199.10986      198.05627      491.7675     
     17000  -125979.08      691.50481     -125287.57      199.09872      198.03271      491.99423    
     17100  -125960.7       684.57582     -125276.13      199.08308      198.0073       492.22095    
     17200  -125947.14      681.49274     -125265.65      199.06519      197.97923      492.44768    
     17300  -125930.37      688.16257     -125242.21      199.05247      197.95234      492.6744     
     17400  -125907.68      689.53893     -125218.14      199.04091      197.92624      492.90113    
     17500  -125887.98      690.60548     -125197.37      199.03249      197.90265      493.12785    
     17600  -125867.51      691.03078     -125176.48      199.02215      197.88074      493.35458    
     17700  -125844.59      694.80098     -125149.79      199.00596      197.86081      493.5813     
     17800  -125821.3       699.20179     -125122.09      198.98654      197.84755      493.80803    
     17900  -125806.89      699.40886     -125107.48      198.96358      197.8342       494.03475    
     18000  -125790.62      692.44085     -125098.18      198.94153      197.81687      494.26148    
     18100  -125768.14      686.58068     -125081.56      198.92407      197.79533      494.48821    
     18200  -125749.85      689.37757     -125060.47      198.91291      197.7739       494.71493    
     18300  -125732.65      696.59381     -125036.06      198.90442      197.75457      494.94166    
     18400  -125703.59      693.04169     -125010.55      198.88765      197.73317      495.16838    
     18500  -125691.59      694.66073     -124996.92      198.86932      197.71164      495.39511    
     18600  -125672.4       687.4702      -124984.93      198.85227      197.69084      495.62183    
     18700  -125650.16      684.10424     -124966.06      198.83444      197.66834      495.84856    
     18800  -125635.9       690.66923     -124945.23      198.81748      197.64506      496.07528    
     18900  -125617.65      696.02455     -124921.62      198.80131      197.62101      496.30201    
     19000  -125590.52      695.57127     -124894.94      198.78426      197.59786      496.52873    
     19100  -125567.04      694.5882      -124872.46      198.76729      197.57819      496.75546    
     19200  -125548.96      690.84569     -124858.12      198.74633      197.56044      496.98219    
     19300  -125534.4       687.65275     -124846.74      198.72463      197.54354      497.20891    
     19400  -125518.17      690.6696      -124827.5       198.707        197.52854      497.43564    
     19500  -125495.83      693.22704     -124802.6       198.68855      197.51326      497.66236    
     19600  -125463.72      690.22617     -124773.49      198.66503      197.49722      497.88909    
     19700  -125440.91      694.1463      -124746.77      198.6427       197.48353      498.11581    
     19800  -125420.19      689.06648     -124731.13      198.62183      197.47228      498.34254    
     19900  -125408.76      686.69235     -124722.07      198.60124      197.45748      498.56926    
     20000  -125379.45      683.80686     -124695.64      198.5824       197.44154      498.79599    
     20100  -125360.5       694.59599     -124665.9       198.56481      197.42408      499.02271    
     20200  -125334.15      694.47424     -124639.67      198.54182      197.40459      499.24944    
     20300  -125308.94      690.91555     -124618.03      198.52316      197.38779      499.47617    
     20400  -125298.11      692.06098     -124606.05      198.5054       197.37019      499.70289    
     20500  -125279.51      689.13121     -124590.38      198.48386      197.35076      499.92962    
     20600  -125252.52      687.18312     -124565.34      198.46631      197.33063      500.15634    
     20700  -125233.22      695.557       -124537.67      198.4528       197.31047      500.38307    
     20800  -125210.77      696.27609     -124514.5       198.43841      197.28988      500.60979    
     20900  -125191.61      691.61692     -124499.99      198.42696      197.27093      500.83652    
     21000  -125179.62      690.63307     -124488.98      198.40813      197.25057      501.06324    
     21100  -125160.8       692.20366     -124468.6       198.38337      197.23052      501.28997    
     21200  -125137.08      691.03184     -124446.05      198.36019      197.21061      501.51669    
     21300  -125115.31      689.07007     -124426.24      198.34201      197.18907      501.74342    
     21400  -125094.55      687.70363     -124406.85      198.3305       197.16875      501.97015    
     21500  -125068.04      686.1265      -124381.91      198.31921      197.14703      502.19687    
     21600  -125045.77      695.29589     -124350.48      198.30867      197.1274       502.4236     
     21700  -125020.56      693.22459     -124327.33      198.29438      197.10797      502.65032    
     21800  -125000.7       690.18667     -124310.51      198.27663      197.08723      502.87705    
     21900  -124980.88      683.11495     -124297.77      198.261        197.07082      503.10377    
     22000  -124959.76      687.72437     -124272.04      198.24241      197.05529      503.3305     
     22100  -124936.59      693.27542     -124243.31      198.21883      197.04105      503.55722    
     22200  -124910.07      692.71449     -124217.36      198.19794      197.02851      503.78395    
     22300  -124885.8       693.92104     -124191.88      198.17618      197.01444      504.01067    
     22400  -124852.92      690.22125     -124162.7       198.15808      197.00029      504.2374     
     22500  -124827.67      696.56456     -124131.1       198.14329      196.9837       504.46413    
     22600  -124806.86      697.82927     -124109.03      198.12721      196.96342      504.69085    
     22700  -124785.04      688.29076     -124096.75      198.11428      196.94737      504.91758    
     22800  -124763.89      689.5406      -124074.35      198.0967       196.93055      505.1443     
     22900  -124735.71      687.21431     -124048.49      198.07663      196.9142       505.37103    
     23000  -124712.71      686.36433     -124026.35      198.05642      196.89845      505.59775    
     23100  -124700.21      696.29382     -124003.91      198.03645      196.88325      505.82448    
     23200  -124668.91      690.83995     -123978.07      198.02063      196.86991      506.0512     
     23300  -124637.05      690.37316     -123946.67      198.00601      196.854        506.27793    
     23400  -124612.77      695.82841     -123916.94      197.9928       196.83725      506.50465    
     23500  -124589.36      695.38891     -123893.97      197.9779       196.82071      506.73138    
     23600  -124574.36      693.239       -123881.12      197.95728      196.80385      506.95811    
     23700  -124551.04      688.6902      -123862.35      197.93766      196.78958      507.18483    
     23800  -124525.04      690.45141     -123834.59      197.919        196.77554      507.41156    
     23900  -124496.97      693.59079     -123803.38      197.90145      196.76066      507.63828    
     24000  -124466.39      692.57828     -123773.81      197.88256      196.74483      507.86501    
     24100  -124449.41      699.54817     -123749.86      197.86353      196.72907      508.09173    
     24200  -124424.5       695.36615     -123729.14      197.84394      196.71189      508.31846    
     24300  -124396.61      690.58419     -123706.03      197.83015      196.69746      508.54518    
     24400  -124372.05      691.22702     -123680.82      197.81279      196.68301      508.77191    
     24500  -124347.73      690.30588     -123657.43      197.79445      196.67172      508.99863    
     24600  -124328.39      692.11467     -123636.28      197.7807       196.66388      509.22536    
     24700  -124304.81      691.00777     -123613.81      197.75664      196.65114      509.45209    
     24800  -124279.46      689.07845     -123590.38      197.73214      196.64077      509.67881    
     24900  -124244.55      689.38278     -123555.17      197.70972      196.63269      509.90554    
     25000  -124215.74      691.17981     -123524.56      197.68366      196.62235      510.13226    
     25100  -124192.47      691.48243     -123500.99      197.6612       196.61243      510.35899    
     25200  -124173.06      688.74454     -123484.31      197.64214      196.60197      510.58571    
     25300  -124151.63      690.05904     -123461.57      197.62252      196.58942      510.81244    
     25400  -124122.32      689.08339     -123433.24      197.60828      196.57923      511.03916    
     25500  -124091.2       687.08819     -123404.12      197.59137      196.56731      511.26589    
     25600  -124072.08      694.17042     -123377.91      197.57066      196.55507      511.49261    
     25700  -124043.31      689.81466     -123353.49      197.55304      196.54546      511.71934    
     25800  -124022.36      693.30738     -123329.05      197.52899      196.53373      511.94606    
     25900  -123997.49      692.56691     -123304.92      197.50506      196.52372      512.17279    
     26000  -123969.83      691.85374     -123277.97      197.4833       196.51186      512.39952    
     26100  -123937.46      692.79938     -123244.66      197.46355      196.49937      512.62624    
     26200  -123904.49      689.59687     -123214.89      197.44928      196.49117      512.85297    
     26300  -123887.45      696.43222     -123191.02      197.42985      196.48152      513.07969    
     26400  -123861.18      684.34646     -123176.83      197.41141      196.47434      513.30642    
     26500  -123838.68      687.86487     -123150.82      197.39517      196.46618      513.53314    
     26600  -123808.65      690.01838     -123118.63      197.37426      196.45464      513.75987    
     26700  -123781.15      693.01737     -123088.14      197.35575      196.44694      513.98659    
     26800  -123752.27      690.25129     -123062.02      197.33668      196.43881      514.21332    
     26900  -123725.17      689.36601     -123035.81      197.31313      196.42665      514.44004    
     27000  -123700.43      692.99296     -123007.43      197.29689      196.41622      514.66677    
     27100  -123672.15      692.01152     -122980.14      197.28363      196.40248      514.8935     
     27200  -123650.58      693.49865     -122957.08      197.26899      196.38543      515.12022    
     27300  -123626.03      690.16462     -122935.86      197.26094      196.3705       515.34695    
     27400  -123604.38      691.18127     -122913.2       197.24961      196.35362      515.57367    
     27500  -123579.76      694.59649     -122885.16      197.23463      196.33721      515.8004     
     27600  -123543.12      690.28909     -122852.83      197.21984      196.32236      516.02712    
     27700  -123525.35      697.24926     -122828.1       197.20155      196.30673      516.25385    
     27800  -123498.87      685.81362     -122813.06      197.18521      196.29097      516.48057    
     27900  -123472.39      686.11651     -122786.27      197.17239      196.27594      516.7073     
     28000  -123443.41      692.16426     -122751.24      197.15891      196.26194      516.93402    
     28100  -123406.58      686.48899     -122720.09      197.14644      196.24925      517.16075    
     28200  -123383.92      690.92054     -122693         197.1337       196.23769      517.38748    
     28300  -123355.57      688.16041     -122667.4       197.12071      196.22925      517.6142     
     28400  -123336.14      688.64156     -122647.49      197.10544      196.22109      517.84093    
     28500  -123311.01      688.90001     -122622.11      197.08837      196.21066      518.06765    
     28600  -123276.75      692.27646     -122584.47      197.07523      196.2018       518.29438    
     28700  -123243.31      692.75879     -122550.56      197.05894      196.18954      518.5211     
     28800  -123208.97      689.31566     -122519.66      197.04292      196.17582      518.74783    
     28900  -123185.46      694.54937     -122490.91      197.03106      196.16257      518.97455    
     29000  -123162.24      696.46019     -122465.78      197.0165       196.14571      519.20128    
     29100  -123131.89      684.43368     -122447.45      197.00386      196.12929      519.428      
     29200  -123113.13      690.55516     -122422.57      196.99168      196.11282      519.65473    
     29300  -123081.3       692.71444     -122388.58      196.9762       196.09546      519.88146    
     29400  -123041.6       689.03572     -122352.57      196.96123      196.0817       520.10818    
     29500  -123024.08      697.9414      -122326.14      196.94492      196.06958      520.33491    
     29600  -122997.08      695.33468     -122301.74      196.92755      196.05843      520.56163    
     29700  -122969.25      690.22341     -122279.02      196.91229      196.051        520.78836    
     29800  -122942.3       685.73827     -122256.56      196.89402      196.04279      521.01508    
     29900  -122914.63      677.22767     -122237.41      196.87576      196.0339       521.24181    
     30000  -122883.54      680.23179     -122203.31      196.86077      196.02647      521.46853    
     30100  -122857.15      691.98241     -122165.17      196.84656      196.01742      521.69526    
     30200  -122820.72      688.95588     -122131.76      196.83148      196.00563      521.92198    
     30300  -122794.74      695.10703     -122099.63      196.8168       195.99331      522.14871    
     30400  -122767.07      697.26992     -122069.8       196.79892      195.98014      522.37544    
     30500  -122733.53      689.71336     -122043.82      196.77797      195.9658       522.60216    
     30600  -122713         690.25862     -122022.74      196.76137      195.95419      522.82889    
     30700  -122686.28      688.14986     -121998.13      196.74429      195.94206      523.05561    
     30800  -122650.02      686.02295     -121964         196.7261       195.93018      523.28234    
     30900  -122618.95      693.325       -121925.62      196.71142      195.9219       523.50906    
     31000  -122595.04      697.91993     -121897.12      196.6937       195.91198      523.73579    
     31100  -122565.96      692.8829      -121873.07      196.67703      195.9048       523.96251    
     31200  -122536.97      688.22962     -121848.74      196.66142      195.89869      524.18924    
     31300  -122504.42      689.9078      -121814.51      196.64317      195.88942      524.41596    
     31400  -122470.21      694.87036     -121775.34      196.62733      195.88108      524.64269    
     31500  -122444.33      698.4242      -121745.9       196.61185      195.87291      524.86942    
     31600  -122412.08      689.17391     -121722.91      196.59511      195.86342      525.09614    
     31700  -122391.98      692.75317     -121699.23      196.5801       195.85266      525.32287    
     31800  -122356.43      687.43317     -121669         196.56536      195.83962      525.54959    
     31900  -122324.48      696.1684      -121628.31      196.54801      195.82467      525.77632    
     32000  -122289.84      694.61706     -121595.22      196.53087      195.8108       526.00304    
     32100  -122262.15      693.28079     -121568.87      196.51209      195.79637      526.22977    
     32200  -122236.53      687.9762      -121548.55      196.49201      195.78245      526.45649    
     32300  -122206.89      684.71896     -121522.17      196.47596      195.77209      526.68322    
     32400  -122181.96      691.55323     -121490.4       196.46003      195.76073      526.90994    
     32500  -122146.31      688.28034     -121458.03      196.44661      195.75032      527.13667    
     32600  -122119.7       695.43405     -121424.27      196.43572      195.74112      527.3634     
     32700  -122082.09      687.53043     -121394.56      196.42295      195.72972      527.59012    
     32800  -122051.2       684.7618      -121366.44      196.41044      195.72021      527.81685    
     32900  -122018.44      682.81504     -121335.63      196.39683      195.70944      528.04357    
     33000  -121994.87      693.08498     -121301.79      196.38076      195.69514      528.2703     
     33100  -121961.2       691.10184     -121270.1       196.3655       195.68081      528.49702    
     33200  -121936.6       690.20148     -121246.4       196.34798      195.66336      528.72375    
     33300  -121911.17      686.27045     -121224.9       196.32934      195.64574      528.95047    
     33400  -121881.65      687.54653     -121194.11      196.31349      195.63167      529.1772     
     33500  -121849.88      692.58406     -121157.3       196.29696      195.61814      529.40392    
     33600  -121820.95      694.82068     -121126.13      196.28146      195.60679      529.63065    
     33700  -121790.1       692.60086     -121097.5       196.26819      195.59669      529.85738    
     33800  -121758.26      690.9713      -121067.29      196.25537      195.58485      530.0841     
     33900  -121725.76      694.63253     -121031.13      196.24419      195.57366      530.31083    
     34000  -121687.6       693.7492      -120993.85      196.23116      195.56111      530.53755    
     34100  -121661.55      693.98704     -120967.56      196.21581      195.54752      530.76428    
     34200  -121633.64      687.99139     -120945.64      196.2006       195.535        530.991      
     34300  -121608.68      691.91148     -120916.77      196.18263      195.52205      531.21773    
     34400  -121567.75      682.33945     -120885.41      196.16474      195.5094       531.44445    
     34500  -121547.08      695.48636     -120851.6       196.15057      195.49753      531.67118    
     34600  -121509.35      691.21998     -120818.13      196.13421      195.48161      531.8979     
     34700  -121484.12      694.58517     -120789.53      196.11894      195.46473      532.12463    
     34800  -121453.73      685.35956     -120768.37      196.10561      195.44883      532.35136    
     34900  -121426.39      687.32332     -120739.06      196.08846      195.43163      532.57808    
     35000  -121391.96      690.70353     -120701.26      196.07421      195.4196       532.80481    
     35100  -121358.8       692.779       -120666.02      196.05958      195.40953      533.03153    
     35200  -121334.22      698.59817     -120635.62      196.04133      195.39722      533.25826    
     35300  -121297.67      690.7203      -120606.95      196.02932      195.39065      533.48498    
     35400  -121267.06      688.04903     -120579.01      196.01445      195.38176      533.71171    
     35500  -121235.55      687.59649     -120547.95      195.99804      195.36943      533.93843    
     35600  -121198.8       690.63772     -120508.16      195.98623      195.35854      534.16516    
     35700  -121171.3       696.95456     -120474.34      195.96907      195.34291      534.39188    
     35800  -121145.58      693.82951     -120451.75      195.95097      195.32744      534.61861    
     35900  -121111.04      685.20977     -120425.83      195.93543      195.3146       534.84534    
     36000  -121080.69      688.78339     -120391.91      195.91495      195.29881      535.07206    
     36100  -121051.34      694.42473     -120356.92      195.89663      195.28572      535.29879    
     36200  -121014.71      691.33566     -120323.37      195.87932      195.27275      535.52551    
     36300  -120981.3       692.72015     -120288.58      195.86024      195.25785      535.75224    
     36400  -120946.59      699.80612     -120246.79      195.84651      195.24697      535.97896    
     36500  -120911.14      695.29921     -120215.84      195.83314      195.23739      536.20569    
     36600  -120884.55      689.9928      -120194.56      195.81779      195.22611      536.43241    
     36700  -120858.89      692.3653      -120166.53      195.80639      195.21761      536.65914    
     36800  -120820.95      687.6898      -120133.26      195.79101      195.20573      536.88586    
     36900  -120788.02      692.68385     -120095.34      195.77341      195.1912       537.11259    
     37000  -120755.17      695.76438     -120059.4       195.75827      195.17878      537.33932    
     37100  -120724.71      690.71332     -120034         195.73815      195.16411      537.56604    
     37200  -120700.7       687.17982     -120013.52      195.71574      195.14884      537.79277    
     37300  -120670.42      689.37921     -119981.04      195.69833      195.13635      538.01949    
     37400  -120627.45      686.41501     -119941.03      195.6807       195.12083      538.24622    
     37500  -120598.47      693.03385     -119905.44      195.66515      195.10616      538.47294    
     37600  -120568.46      692.12776     -119876.33      195.65345      195.09488      538.69967    
     37700  -120538.64      689.62753     -119849.01      195.63866      195.08076      538.92639    
     37800  -120511.13      687.93372     -119823.2       195.62536      195.06784      539.15312    
     37900  -120482.13      684.52725     -119797.6       195.61199      195.05504      539.37984    
     38000  -120444.7       687.13185     -119757.57      195.59532      195.03995      539.60657    
     38100  -120407.04      687.89178     -119719.15      195.57889      195.02685      539.8333     
     38200  -120381.11      695.54701     -119685.56      195.55844      195.01286      540.06002    
     38300  -120345.19      690.14706     -119655.04      195.53769      194.99773      540.28675    
     38400  -120316.18      689.12034     -119627.06      195.5202       194.98347      540.51347    
     38500  -120281.97      683.40694     -119598.57      195.50212      194.96911      540.7402     
     38600  -120253.51      690.91766     -119562.59      195.48498      194.95563      540.96692    
     38700  -120214.99      692.57171     -119522.41      195.46881      194.94252      541.19365    
     38800  -120183.29      693.53966     -119489.75      195.45257      194.92812      541.42037    
     38900  -120152.93      688.89166     -119464.04      195.43779      194.91367      541.6471     
     39000  -120127.27      689.9877      -119437.28      195.42277      194.89889      541.87382    
     39100  -120088.18      685.38022     -119402.8       195.40732      194.88385      542.10055    
     39200  -120059.39      695.76702     -119363.62      195.3923       194.87086      542.32728    
     39300  -120026.61      695.89345     -119330.72      195.37398      194.85736      542.554      
     39400  -119992.34      688.82508     -119303.52      195.35501      194.84262      542.78073    
     39500  -119964.14      686.29293     -119277.85      195.33959      194.82954      543.00745    
     39600  -119940.29      696.30294     -119243.98      195.32168      194.8148       543.23418    
     39700  -119894.57      694.39042     -119200.18      195.30428      194.80011      543.4609     
     39800  -119860.19      693.29508     -119166.89      195.28857      194.78632      543.68763    
     39900  -119831.48      692.46443     -119139.01      195.26976      194.76913      543.91435    
     40000  -119800.68      687.59951     -119113.08      195.25226      194.75221      544.14108    
     40100  -119768.49      686.92183     -119081.57      195.2368       194.73698      544.3678     
     40200  -119738.07      692.4344      -119045.64      195.21928      194.72112      544.59453    
     40300  -119700.99      695.63199     -119005.36      195.20322      194.70832      544.82126    
     40400  -119659.87      699.49169     -118960.38      195.18772      194.69661      545.04798    
     40500  -119632.55      696.83064     -118935.72      195.17106      194.68297      545.27471    
     40600  -119603.93      691.74288     -118912.18      195.15604      194.66957      545.50143    
     40700  -119571.33      686.59042     -118884.74      195.14047      194.65642      545.72816    
     40800  -119535.82      684.11746     -118851.7       195.12221      194.6411       545.95488    
     40900  -119506.69      697.31761     -118809.37      195.10531      194.6269       546.18161    
     41000  -119463.81      688.43765     -118775.37      195.0877       194.61173      546.40833    
     41100  -119440.16      694.14154     -118746.02      195.06948      194.59535      546.63506    
     41200  -119406.56      689.05344     -118717.51      195.05309      194.58069      546.86178    
     41300  -119373.34      686.39816     -118686.94      195.03518      194.56474      547.08851    
     41400  -119341.11      694.67222     -118646.43      195.01695      194.54896      547.31524    
     41500  -119298.28      691.56019     -118606.71      195.00081      194.53532      547.54196    
     41600  -119274.05      695.34824     -118578.7       194.9818       194.51952      547.76869    
     41700  -119242.1       687.52749     -118554.57      194.96408      194.50374      547.99541    
     41800  -119211.63      688.51513     -118523.12      194.94875      194.48974      548.22214    
     41900  -119178.62      692.75301     -118485.87      194.93116      194.47391      548.44886    
     42000  -119138.28      691.75028     -118446.53      194.91525      194.4605       548.67559    
     42100  -119103.53      700.55833     -118402.98      194.89854      194.44611      548.90231    
     42200  -119065.51      695.53268     -118369.98      194.88097      194.43143      549.12904    
     42300  -119040.56      687.34247     -118353.22      194.86407      194.41692      549.35576    
     42400  -119010.23      688.10964     -118322.12      194.84711      194.40083      549.58249    
     42500  -118977.71      691.34887     -118286.36      194.83061      194.38458      549.80922    
     42600  -118941.95      692.54621     -118249.4       194.81403      194.36912      550.03594    
     42700  -118908.35      694.67503     -118213.68      194.79637      194.35269      550.26267    
     42800  -118869.3       687.20174     -118182.1       194.77909      194.33608      550.48939    
     42900  -118845.73      687.99162     -118157.74      194.76191      194.3191       550.71612    
     43000  -118818.29      688.92453     -118129.36      194.74377      194.30228      550.94284    
     43100  -118780.61      689.48356     -118091.13      194.72686      194.28711      551.16957    
     43200  -118740.62      689.51922     -118051.1       194.70891      194.27283      551.39629    
     43300  -118707.25      689.01249     -118018.24      194.69025      194.25873      551.62302    
     43400  -118678.98      690.81743     -117988.17      194.67213      194.24501      551.84974    
     43500  -118645.05      687.68556     -117957.37      194.65444      194.23035      552.07647    
     43600  -118616.66      692.04502     -117924.61      194.63991      194.2165       552.30319    
     43700  -118579.41      690.23942     -117889.17      194.62558      194.20148      552.52992    
     43800  -118546.76      695.31812     -117851.44      194.60921      194.18471      552.75665    
     43900  -118508.39      694.31874     -117814.08      194.59226      194.16803      552.98337    
     44000  -118478.08      697.59317     -117780.49      194.57454      194.15105      553.2101     
     44100  -118449.7       692.11383     -117757.58      194.55647      194.13366      553.43682    
     44200  -118419.87      690.4738      -117729.39      194.539        194.11805      553.66355    
     44300  -118381.82      688.25432     -117693.57      194.52055      194.10292      553.89027    
     44400  -118346.31      693.77299     -117652.54      194.5013       194.08685      554.117      
     44500  -118315.55      699.17498     -117616.37      194.48398      194.073        554.34372    
     44600  -118281.04      694.81671     -117586.22      194.46787      194.05876      554.57045    
     44700  -118247.07      690.42806     -117556.64      194.45161      194.04134      554.79717    
     44800  -118216.54      690.00006     -117526.54      194.43847      194.02533      555.0239     
     44900  -118182.91      688.16994     -117494.74      194.42331      194.00827      555.25063    
     45000  -118150.52      694.67003     -117455.85      194.40541      193.99034      555.47735    
     45100  -118107.36      693.90794     -117413.45      194.38948      193.97625      555.70408    
     45200  -118076.16      694.12298     -117382.04      194.37107      193.96042      555.9308     
     45300  -118047.61      690.70138     -117356.91      194.35242      193.94366      556.15753    
     45400  -118015.52      690.40122     -117325.12      194.33748      193.93015      556.38425    
     45500  -117981.2       692.79181     -117288.41      194.32055      193.91417      556.61098    
     45600  -117940.8       690.29996     -117250.5       194.30433      193.89906      556.8377     
     45700  -117906.12      691.05528     -117215.06      194.28869      193.88476      557.06443    
     45800  -117878         693.04954     -117184.95      194.26952      193.86614      557.29115    
     45900  -117854.62      695.84965     -117158.77      194.25356      193.84978      557.51788    
     46000  -117811.18      683.90108     -117127.28      194.23678      193.83239      557.74461    
     46100  -117782.22      695.55769     -117086.66      194.21725      193.81296      557.97133    
     46200  -117735.56      690.56074     -117044.99      194.20175      193.7978       558.19806    
     46300  -117709.03      696.95137     -117012.08      194.1849       193.77981      558.42478    
     46400  -117675.47      692.78663     -116982.68      194.16984      193.76197      558.65151    
     46500  -117641.97      689.19139     -116952.78      194.15697      193.74645      558.87823    
     46600  -117609.45      690.83229     -116918.61      194.14017      193.72754      559.10496    
     46700  -117568.55      685.89812     -116882.65      194.12489      193.71175      559.33168    
     46800  -117539.54      693.05095     -116846.49      194.10994      193.69753      559.55841    
     46900  -117509.22      697.02906     -116812.19      194.09182      193.68174      559.78513    
     47000  -117471.94      693.28896     -116778.65      194.07678      193.66971      560.01186    
     47100  -117438.42      693.71414     -116744.7       194.06078      193.65493      560.23859    
     47200  -117403.91      693.53878     -116710.37      194.04208      193.63682      560.46531    
     47300  -117367.36      695.75553     -116671.6       194.02561      193.62179      560.69204    
     47400  -117332.9       699.18205     -116633.72      194.00759      193.60319      560.91876    
     47500  -117302.25      696.25334     -116606         193.99052      193.58527      561.14549    
     47600  -117268.26      689.31612     -116578.94      193.97633      193.56956      561.37221    
     47700  -117234.19      688.70173     -116545.49      193.95974      193.55007      561.59894    
     47800  -117200.24      690.46808     -116509.77      193.94344      193.53391      561.82566    
     47900  -117162         696.37457     -116465.62      193.92759      193.51948      562.05239    
     48000  -117122.3       695.61009     -116426.69      193.90986      193.50346      562.27911    
     48100  -117099.93      699.67102     -116400.26      193.89321      193.49026      562.50584    
     48200  -117062.21      690.12821     -116372.08      193.87634      193.47588      562.73257    
     48300  -117027.19      686.59584     -116340.59      193.85896      193.45948      562.95929    
     48400  -116994.54      687.34933     -116307.19      193.84247      193.44533      563.18602    
     48500  -116965.29      691.98017     -116273.31      193.82599      193.43089      563.41274    
     48600  -116930.41      690.52065     -116239.89      193.80911      193.41444      563.63947    
     48700  -116900.44      692.45363     -116207.98      193.79305      193.39837      563.86619    
     48800  -116863.26      688.90242     -116174.36      193.77477      193.38087      564.09292    
     48900  -116829.24      691.74251     -116137.5       193.75649      193.36373      564.31964    
     49000  -116792.44      694.40613     -116098.03      193.73981      193.34871      564.54637    
     49100  -116760.77      696.85354     -116063.92      193.72116      193.33087      564.77309    
     49200  -116728.03      689.33502     -116038.7       193.70488      193.31401      564.99982    
     49300  -116691.07      684.83165     -116006.24      193.69132      193.29804      565.22655    
     49400  -116659.64      693.20096     -115966.44      193.67616      193.27939      565.45327    
     49500  -116621.78      695.03138     -115926.75      193.66336      193.26378      565.68       
     49600  -116589.99      695.78657     -115894.2       193.64962      193.2486       565.90672    
     49700  -116562.87      688.93511     -115873.93      193.63304      193.23281      566.13345    
     49800  -116525.88      688.11386     -115837.77      193.6186       193.22141      566.36017    
     49900  -116484.41      689.86532     -115794.55      193.60118      193.20723      566.5869     
     50000  -116447.04      692.05726     -115754.99      193.58177      193.19012      566.81362    
     50100  -116418.54      694.947       -115723.59      193.56589      193.17647      567.04035    
     50200  -116383.12      684.89074     -115698.23      193.54755      193.15741      567.26707    
     50300  -116357.05      692.86181     -115664.19      193.5307       193.13717      567.4938     
     50400  -116312.15      685.52748     -115626.63      193.51782      193.11971      567.72053    
     50500  -116278.78      689.68713     -115589.09      193.5027       193.09835      567.94725    
     50600  -116245.93      694.73821     -115551.19      193.48981      193.08065      568.17398    
     50700  -116208.03      692.68063     -115515.35      193.47749      193.06719      568.4007     
     50800  -116176.26      688.42439     -115487.84      193.46099      193.0516       568.62743    
     50900  -116144.85      686.9149      -115457.94      193.44606      193.03979      568.85415    
     51000  -116107.15      686.87623     -115420.27      193.43079      193.02717      569.08088    
     51100  -116075.88      698.28491     -115377.59      193.41333      193.01011      569.3076     
     51200  -116032.13      698.0613      -115334.06      193.39892      192.9946       569.53433    
     51300  -116000.15      697.18795     -115302.96      193.38325      192.97577      569.76105    
     51400  -115967.24      687.69074     -115279.55      193.36722      192.95587      569.98778    
     51500  -115933.33      685.81286     -115247.52      193.35292      192.93679      570.21451    
     51600  -115903.84      691.23249     -115212.6       193.33759      192.91633      570.44123    
     51700  -115869.66      693.35244     -115176.3       193.32282      192.89817      570.66796    
     51800  -115829.66      693.66115     -115136         193.30893      192.8825       570.89468    
     51900  -115793.68      698.23014     -115095.45      193.29312      192.86597      571.12141    
     52000  -115757.08      693.62315     -115063.46      193.27751      192.85179      571.34813    
     52100  -115726.83      688.78524     -115038.05      193.26285      192.83817      571.57486    
     52200  -115693.49      689.84381     -115003.64      193.24746      192.82193      571.80158    
     52300  -115659.25      692.7704      -114966.48      193.23356      192.80701      572.02831    
     52400  -115624.04      697.42247     -114926.62      193.21904      192.79122      572.25503    
     52500  -115583.58      700.32062     -114883.26      193.20265      192.77409      572.48176    
     52600  -115555.42      701.43573     -114853.98      193.18624      192.75897      572.70849    
     52700  -115519         692.08474     -114826.91      193.16885      192.7437       572.93521    
     52800  -115489.49      694.04105     -114795.45      193.14933      192.72735      573.16194    
     52900  -115450.45      686.18094     -114764.26      193.13111      192.71266      573.38866    
     53000  -115422.72      690.20067     -114732.52      193.11296      192.69705      573.61539    
     53100  -115382.98      680.84397     -114702.14      193.0947       192.67998      573.84211    
     53200  -115356.37      686.76543     -114669.61      193.07993      192.66494      574.06884    
     53300  -115320.44      695.65667     -114624.78      193.06457      192.64776      574.29556    
     53400  -115282.72      700.50955     -114582.21      193.05062      192.63204      574.52229    
     53500  -115244.16      696.41123     -114547.75      193.03763      192.61743      574.74901    
     53600  -115208.45      688.67272     -114519.78      193.0234       192.60066      574.97574    
     53700  -115178.18      692.03134     -114486.15      193.01002      192.58684      575.20247    
     53800  -115142.56      692.77672     -114449.79      192.99514      192.57325      575.42919    
     53900  -115106.92      690.74403     -114416.18      192.97802      192.55731      575.65592    
     54000  -115073.82      687.05718     -114386.76      192.96257      192.54422      575.88264    
     54100  -115047.49      688.07364     -114359.42      192.94501      192.52776      576.10937    
     54200  -115007.71      687.38615     -114320.33      192.92605      192.50943      576.33609    
     54300  -114969.69      692.18644     -114277.5       192.90891      192.4936       576.56282    
     54400  -114931.39      690.05459     -114241.33      192.89064      192.47636      576.78954    
     54500  -114902.39      694.42188     -114207.97      192.87429      192.46039      577.01627    
     54600  -114867.78      691.09747     -114176.68      192.85969      192.44333      577.24299    
     54700  -114830.29      685.53043     -114144.76      192.84546      192.42347      577.46972    
     54800  -114800.55      687.94317     -114112.61      192.83305      192.4077       577.69645    
     54900  -114764.2       683.83959     -114080.36      192.81886      192.39286      577.92317    
     55000  -114733.26      693.50881     -114039.75      192.80402      192.379        578.1499     
     55100  -114686.25      692.22071     -113994.03      192.78994      192.36603      578.37662    
     55200  -114654.22      696.51259     -113957.71      192.7729       192.34924      578.60335    
     55300  -114620.38      691.95081     -113928.43      192.757        192.33274      578.83007    
     55400  -114585.28      690.48906     -113894.79      192.74156      192.31572      579.0568     
     55500  -114548.29      690.51903     -113857.77      192.72411      192.29446      579.28352    
     55600  -114519.02      696.40293     -113822.62      192.71017      192.27621      579.51025    
     55700  -114481         686.01873     -113794.98      192.69593      192.25593      579.73697    
     55800  -114448.63      686.51049     -113762.12      192.68119      192.23332      579.9637     
     55900  -114409.9       688.51731     -113721.38      192.67037      192.21598      580.19043    
     56000  -114375.2       694.46162     -113680.73      192.65761      192.20006      580.41715    
     56100  -114337.28      693.63558     -113643.64      192.64268      192.18566      580.64388    
     56200  -114306.53      687.34012     -113619.19      192.62909      192.17454      580.8706     
     56300  -114268.83      684.80925     -113584.02      192.61323      192.15948      581.09733    
     56400  -114224.22      682.95483     -113541.27      192.59738      192.14226      581.32405    
     56500  -114191.33      694.62274     -113496.71      192.5835       192.12476      581.55078    
     56600  -114157.77      695.77993     -113461.99      192.56882      192.10381      581.7775     
     56700  -114127.32      692.85069     -113434.47      192.55563      192.08529      582.00423    
     56800  -114084.39      685.59408     -113398.79      192.54129      192.06602      582.23095    
     56900  -114050.87      688.7884      -113362.09      192.52496      192.04624      582.45768    
     57000  -114021.27      694.70373     -113326.57      192.50969      192.03114      582.68441    
     57100  -113985.88      689.10111     -113296.78      192.49244      192.01532      582.91113    
     57200  -113952.3       689.39135     -113262.9       192.47466      192.00041      583.13786    
     57300  -113910.83      688.5629      -113222.27      192.45726      191.98822      583.36458    
     57400  -113876.44      702.26688     -113174.17      192.43892      191.97326      583.59131    
     57500  -113838.71      703.46429     -113135.25      192.42253      191.95724      583.81803    
     57600  -113805.89      697.26264     -113108.63      192.40613      191.93891      584.04476    
     57700  -113773.36      695.23756     -113078.12      192.38827      191.91861      584.27148    
     57800  -113738.22      690.87492     -113047.34      192.37262      191.90248      584.49821    
     57900  -113703.61      688.37796     -113015.23      192.35524      191.88597      584.72493    
     58000  -113672.37      693.83149     -112978.53      192.33631      191.8694       584.95166    
     58100  -113629.99      690.70777     -112939.29      192.31915      191.85636      585.17839    
     58200  -113595.61      695.01831     -112900.59      192.30207      191.84357      585.40511    
     58300  -113556.54      689.64126     -112866.9       192.28464      191.82922      585.63184    
     58400  -113529.42      694.17939     -112835.24      192.26882      191.8161       585.85856    
     58500  -113492.47      691.67372     -112800.8       192.25322      191.80228      586.08529    
     58600  -113454.37      691.86665     -112762.51      192.23645      191.78524      586.31201    
     58700  -113415.85      694.90575     -112720.95      192.22001      191.768        586.53874    
     58800  -113372.87      690.67801     -112682.19      192.20272      191.75018      586.76546    
     58900  -113337.87      686.79764     -112651.07      192.18439      191.73153      586.99219    
     59000  -113304.28      685.40171     -112618.88      192.1665       191.71357      587.21891    
     59100  -113269.7       685.35966     -112584.34      192.14905      191.69645      587.44564    
     59200  -113235.75      688.49745     -112547.25      192.13143      191.67881      587.67237    
     59300  -113202.28      691.34767     -112510.93      192.11512      191.66328      587.89909    
     59400  -113165.67      685.42121     -112480.25      192.09897      191.64761      588.12582    
     59500  -113133.39      690.87113     -112442.52      192.08293      191.63013      588.35254    
     59600  -113093.8       695.49946     -112398.3       192.06796      191.61481      588.57927    
     59700  -113050.36      699.2804      -112351.08      192.05088      191.59865      588.80599    
     59800  -113009.25      697.03325     -112312.22      192.03289      191.58135      589.03272    
     59900  -112978.38      692.97689     -112285.41      192.01631      191.5646       589.25944    
     60000  -112944.5       692.42849     -112252.07      191.99966      191.54636      589.48617    
     60100  -112912.28      693.9265      -112218.36      191.98295      191.52577      589.71289    
     60200  -112877.22      695.35236     -112181.87      191.968        191.50594      589.93962    
     60300  -112841.31      695.30458     -112146         191.95261      191.48474      590.16635    
     60400  -112798.15      685.25554     -112112.9       191.93632      191.46237      590.39307    
     60500  -112761.66      684.72196     -112076.94      191.92161      191.4441       590.6198     
     60600  -112715.96      687.13022     -112028.83      191.90539      191.42544      590.84652    
     60700  -112679.84      699.67495     -111980.17      191.88892      191.40726      591.07325    
     60800  -112644.21      698.62275     -111945.59      191.87311      191.3922       591.29997    
     60900  -112609.74      697.21129     -111912.53      191.85646      191.37584      591.5267     
     61000  -112566.69      690.92545     -111875.77      191.84014      191.35821      591.75342    
     61100  -112524.55      683.59037     -111840.96      191.8244       191.33967      591.98015    
     61200  -112501.78      696.86404     -111804.92      191.80893      191.31967      592.20687    
     61300  -112462.72      696.37518     -111766.34      191.79389      191.29831      592.4336     
     61400  -112422.37      696.4989      -111725.87      191.77875      191.27675      592.66032    
     61500  -112377.86      692.01998     -111685.84      191.76291      191.25551      592.88705    
     61600  -112343.88      696.92746     -111646.95      191.74626      191.23444      593.11378    
     61700  -112301.26      692.95648     -111608.3       191.72923      191.2145       593.3405     
     61800  -112265.71      695.34088     -111570.37      191.7125       191.19709      593.56723    
     61900  -112229.17      694.85598     -111534.32      191.69514      191.18087      593.79395    
     62000  -112194.75      699.16165     -111495.59      191.67743      191.16497      594.02068    
     62100  -112152.35      694.87899     -111457.48      191.65874      191.14827      594.2474     
     62200  -112115.18      695.41308     -111419.77      191.63903      191.12996      594.47413    
     62300  -112072.92      691.80501     -111381.12      191.62037      191.11134      594.70085    
     62400  -112038.31      694.0014      -111344.3       191.60287      191.08971      594.92758    
     62500  -111996.71      691.47205     -111305.23      191.58605      191.06719      595.1543     
     62600  -111957.91      691.91661     -111266         191.57017      191.04749      595.38103    
     62700  -111921.13      693.28718     -111227.85      191.55344      191.02858      595.60776    
     62800  -111881.79      693.50772     -111188.28      191.536        191.01191      595.83448    
     62900  -111839.76      692.30358     -111147.46      191.51829      190.9973       596.06121    
     63000  -111802.22      694.96396     -111107.25      191.49844      190.98021      596.28793    
     63100  -111770.5       701.91749     -111068.59      191.48006      190.96392      596.51466    
     63200  -111721.66      690.74033     -111030.92      191.46135      190.94457      596.74138    
     63300  -111681.84      691.65982     -110990.18      191.44275      190.92278      596.96811    
     63400  -111643.38      694.13617     -110949.25      191.42651      190.90191      597.19483    
     63500  -111600.65      689.73646     -110910.91      191.40891      190.87777      597.42156    
     63600  -111559.94      690.17131     -110869.77      191.39182      190.85544      597.64828    
     63700  -111520.46      691.74213     -110828.72      191.37448      190.83459      597.87501    
     63800  -111480.28      688.9977      -110791.28      191.35503      190.81317      598.10174    
     63900  -111445.22      694.58331     -110750.64      191.33776      190.79646      598.32846    
     64000  -111409.52      700.55279     -110708.97      191.31949      190.77823      598.55519    
     64100  -111361.01      692.89264     -110668.12      191.30126      190.76027      598.78191    
     64200  -111317.33      691.18081     -110626.15      191.28489      190.74286      599.00864    
     64300  -111282.4       698.4737      -110583.92      191.26779      190.72076      599.23536    
     64400  -111240.69      697.67915     -110543.01      191.25164      190.699        599.46209    
     64500  -111195.75      693.12636     -110502.62      191.23479      190.67648      599.68881    
     64600  -111156.74      695.32998     -110461.41      191.21731      190.65202      599.91554    
     64700  -111112.95      693.6058      -110419.34      191.19995      190.62838      600.14226    
     64800  -111070.85      693.43859     -110377.41      191.18346      190.60704      600.36899    
     64900  -111032.77      697.29192     -110335.48      191.16693      190.58561      600.59572    
     65000  -110984.24      692.07869     -110292.16      191.14967      190.56375      600.82244    
     65100  -110943.74      695.21372     -110248.53      191.1334       190.5436       601.04917    
     65200  -110899.57      693.56622     -110206         191.11673      190.52258      601.27589    
     65300  -110857.3       695.6745      -110161.63      191.10006      190.50169      601.50262    
     65400  -110809.61      691.32459     -110118.29      191.08359      190.48078      601.72934    
     65500  -110774.92      697.26791     -110077.65      191.06689      190.4577       601.95607    
     65600  -110724.93      691.14855     -110033.78      191.05081      190.43534      602.18279    
     65700  -110686.64      695.61812     -109991.03      191.03359      190.41335      602.40952    
     65800  -110645.31      698.89903     -109946.41      191.01614      190.39201      602.63624    
     65900  -110599.31      697.4182      -109901.9       190.99944      190.37187      602.86297    
     66000  -110551.87      694.24706     -109857.62      190.98173      190.34986      603.0897     
     66100  -110510.62      696.3183      -109814.3       190.96334      190.32724      603.31642    
     66200  -110463.52      694.07332     -109769.45      190.94469      190.30463      603.54315    
     66300  -110420.05      694.26175     -109725.79      190.92548      190.28255      603.76987    
     66400  -110378.17      696.2647      -109681.9       190.9065       190.26188      603.9966     
     66500  -110337.2       698.21958     -109638.98      190.88789      190.24181      604.22332    
     66600  -110283.02      689.20477     -109593.81      190.87025      190.22225      604.45005    
     66700  -110245.8       697.78991     -109548.01      190.85388      190.2029       604.67677    
     66800  -110196.56      694.90829     -109501.65      190.83703      190.18067      604.9035     
     66900  -110145.08      689.48257     -109455.59      190.82046      190.15759      605.13022    
     67000  -110103.76      693.6519      -109410.11      190.80418      190.13563      605.35695    
     67100  -110069.21      704.86837     -109364.34      190.78573      190.11278      605.58368    
     67200  -110022.66      703.64177     -109319.02      190.76742      190.0918       605.8104     
     67300  -109970.54      697.83383     -109272.71      190.74873      190.07146      606.03713    
     67400  -109922.16      695.29859     -109226.86      190.72898      190.04998      606.26385    
     67500  -109876.93      697.58848     -109179.34      190.71055      190.03033      606.49058    
     67600  -109823.34      691.32042     -109132.02      190.69155      190.00797      606.7173     
     67700  -109786.93      701.50618     -109085.42      190.67336      189.98511      606.94403    
     67800  -109732.34      694.22898     -109038.11      190.65669      189.96318      607.17075    
     67900  -109686.46      693.73768     -108992.72      190.63955      189.9398       607.39748    
     68000  -109634.76      689.86233     -108944.89      190.62256      189.91912      607.6242     
     68100  -109592.71      696.10944     -108896.6       190.6049       189.89967      607.85093    
     68200  -109547.11      698.14326     -108848.97      190.58633      189.87992      608.07766    
     68300  -109493.78      692.18562     -108801.59      190.56775      189.85837      608.30438    
     68400  -109448.59      696.04456     -108752.55      190.55033      189.8358       608.53111    
     68500  -109403.34      699.68357     -108703.66      190.53303      189.81163      608.75783    
     68600  -109354.33      701.32319     -108653         190.51634      189.78722      608.98456    
     68700  -109298.04      695.48957     -108602.56      190.50073      189.76445      609.21128    
     68800  -109244.54      691.77705     -108552.77      190.48391      189.74173      609.43801    
     68900  -109199.56      695.98215     -108503.58      190.46702      189.72193      609.66473    
     69000  -109152.42      699.30346     -108453.12      190.4487       189.70234      609.89146    
     69100  -109102.1       698.43841     -108403.66      190.42972      189.68197      610.11818    
     69200  -109048.77      693.05376     -108355.72      190.41151      189.66092      610.34491    
     69300  -108998.18      693.20814     -108304.98      190.39481      189.63947      610.57164    
     69400  -108943.93      692.21572     -108251.72      190.37838      189.61542      610.79836    
     69500  -108901.89      699.74285     -108202.15      190.36235      189.59067      611.02509    
     69600  -108845.39      695.23066     -108150.16      190.3457       189.56631      611.25181    
     69700  -108801.6       701.83595     -108099.76      190.32905      189.5433       611.47854    
     69800  -108745.8       698.08907     -108047.71      190.31249      189.52072      611.70526    
     69900  -108695.51      699.67303     -107995.84      190.29631      189.49946      611.93199    
     70000  -108643.59      699.7594      -107943.84      190.28066      189.4779       612.15871    
     70100  -108582.65      692.78781     -107889.86      190.26538      189.45527      612.38544    
     70200  -108534.19      697.23245     -107836.95      190.24929      189.43326      612.61216    
     70300  -108488.73      703.10739     -107785.62      190.23192      189.41142      612.83889    
     70400  -108429.59      696.52316     -107733.06      190.21447      189.39009      613.06562    
     70500  -108379         699.5342      -107679.46      190.19694      189.36828      613.29234    
     70600  -108322.17      695.64478     -107626.52      190.17965      189.34529      613.51907    
     70700  -108278.41      703.17245     -107575.23      190.16317      189.32266      613.74579    
     70800  -108225.14      704.54176     -107520.6       190.14743      189.29972      613.97252    
     70900  -108168.22      701.62486     -107466.59      190.1319       189.27693      614.19924    
     71000  -108117.9       704.69565     -107413.2       190.11507      189.2551       614.42597    
     71100  -108058.08      700.9026      -107357.18      190.09842      189.23589      614.65269    
     71200  -108005.87      702.34074     -107303.53      190.08046      189.21545      614.87942    
     71300  -107954.69      707.26838     -107247.43      190.06369      189.19566      615.10614    
     71400  -107900.34      708.73107     -107191.61      190.04731      189.1751       615.33287    
     71500  -107845.1       706.15221     -107138.95      190.03073      189.15302      615.5596     
     71600  -107793.18      710.43559     -107082.74      190.01419      189.13045      615.78632    
     71700  -107735.72      708.49048     -107027.23      189.9966       189.10626      616.01305    
     71800  -107674.3       704.61978     -106969.68      189.97895      189.0831       616.23977    
     71900  -107617.59      706.49819     -106911.09      189.96239      189.06312      616.4665     
     72000  -107572.36      717.14855     -106855.21      189.94538      189.04375      616.69322    
     72100  -107508.71      711.90898     -106796.8       189.92984      189.02693      616.91995    
     72200  -107451.79      711.19138     -106740.59      189.91328      189.00808      617.14667    
     72300  -107397.03      714.65759     -106682.37      189.89656      188.9883       617.3734     
     72400  -107332.27      710.25727     -106622.01      189.88027      188.96745      617.60012    
     72500  -107272.96      711.74648     -106561.21      189.86309      188.94366      617.82685    
     72600  -107211.38      709.86484     -106501.51      189.84666      188.92196      618.05358    
     72700  -107163.2       722.40765     -106440.79      189.82887      188.90049      618.2803     
[...]
     81600  -126573.97      664.22441     -125909.74      189.95731      190.29355      638.45887    
     81700  -126569.05      684.91327     -125884.14      189.96282      190.31171      638.68559    
     81800  -126538.17      700.14481     -125838.02      189.96542      190.32429      638.91232    
     81900  -126523.42      708.3783      -125815.04      189.97701      190.34909      639.13904    
     82000  -126520.79      693.68344     -125827.1       189.98202      190.36297      639.36577    
     82100  -126524.96      676.70517     -125848.26      189.98845      190.37987      639.59249    
     82200  -126514.16      671.86217     -125842.3       189.99842      190.39808      639.81922    
     82300  -126506.91      694.00327     -125812.9       190.0017       190.40611      640.04594    
     82400  -126502.76      713.22482     -125789.53      190.0055       190.41752      640.27267    
     82500  -126500.26      699.90469     -125800.36      190.00863      190.42725      640.49939    
     82600  -126512.65      682.9802      -125829.67      190.01515      190.43871      640.72612    
     82700  -126518.38      675.45454     -125842.93      190.01821      190.45131      640.95285    
     82800  -126510.7       688.1316      -125822.57      190.01542      190.46542      641.17957    
     82900  -126488.5       699.73437     -125788.77      190.01436      190.48441      641.4063     
     83000  -126485.91      710.57072     -125775.34      190.00968      190.4996       641.63302    
     83100  -126520.21      710.12626     -125810.09      190.0052       190.51556      641.85975    
     83200  -126556.12      680.02375     -125876.1       190.00186      190.53308      642.08647    
     83300  -126582.44      662.26906     -125920.17      189.99689      190.54845      642.3132     
     83400  -126568.15      658.97034     -125909.18      189.99862      190.56623      642.53992    
     83500  -126543.33      694.6812      -125848.65      190.00107      190.58377      642.76665    
     83600  -126512.77      717.14747     -125795.63      190.00132      190.60074      642.99337    
     83700  -126513.62      720.4849      -125793.14      190.00698      190.62375      643.2201     
     83800  -126530.9       692.67478     -125838.22      190.00877      190.64282      643.44683    
     83900  -126558.41      674.91957     -125883.49      190.00847      190.66393      643.67355    
     84000  -126561.43      669.4005      -125892.03      190.00918      190.68386      643.90028    
     84100  -126546.87      689.53415     -125857.33      190.01045      190.70082      644.127      
     84200  -126522.9       709.59919     -125813.3       190.01116      190.71715      644.35373    
     84300  -126507.27      708.55656     -125798.71      190.01508      190.73025      644.58045    
     84400  -126520.14      695.03711     -125825.1       190.01827      190.73969      644.80718    
     84500  -126543.07      683.05878     -125860.01      190.02147      190.74838      645.0339     
     84600  -126549.55      676.18049     -125873.37      190.02626      190.75857      645.26063    
     84700  -126544.57      683.65205     -125860.92      190.03115      190.77118      645.48735    
     84800  -126538.67      696.79668     -125841.87      190.03559      190.78232      645.71408    
     84900  -126538.6       697.59331     -125841.01      190.04021      190.79368      645.94081    
     85000  -126551.6       695.88619     -125855.72      190.0426       190.80498      646.16753    
     85100  -126561.87      692.69989     -125869.17      190.04579      190.81556      646.39426    
     85200  -126554.12      686.7481      -125867.37      190.04754      190.8245       646.62098    
     85300  -126548.68      692.80873     -125855.88      190.05182      190.83565      646.84771    
     85400  -126539.65      693.32693     -125846.32      190.05117      190.84585      647.07443    
     85500  -126545.94      696.59457     -125849.34      190.04827      190.86092      647.30116    
     85600  -126557.69      691.84284     -125865.85      190.04504      190.87786      647.52788    
     85700  -126569.32      685.66535     -125883.66      190.04195      190.89734      647.75461    
     85800  -126563.94      682.60098     -125881.34      190.03879      190.91021      647.98133    
     85900  -126554.22      695.32107     -125858.9       190.03926      190.91966      648.20806    
     86000  -126541.49      701.5522      -125839.94      190.04114      190.92694      648.43479    
     86100  -126535.24      695.68925     -125839.55      190.04651      190.93319      648.66151    
     86200  -126545.03      685.63112     -125859.4       190.05754      190.94666      648.88824    
     86300  -126555.68      678.68101     -125877         190.06681      190.95814      649.11496    
     86400  -126557.72      679.41637     -125878.31      190.07721      190.97039      649.34169    
     86500  -126548.66      688.50012     -125860.16      190.08505      190.98183      649.56841    
     86600  -126533.38      693.8954      -125839.48      190.09134      190.98955      649.79514    
     86700  -126540.28      702.49634     -125837.78      190.09932      191.00125      650.02186    
     86800  -126549.04      694.20161     -125854.84      190.10915      191.01368      650.24859    
     86900  -126558.26      685.47533     -125872.79      190.11776      191.02224      650.47531    
     87000  -126553.23      677.50925     -125875.72      190.12477      191.02998      650.70204    
     87100  -126542.21      683.81746     -125858.39      190.13163      191.03803      650.92877    
     87200  -126532.09      697.52945     -125834.56      190.13726      191.04708      651.15549    
     87300  -126525.87      700.79902     -125825.07      190.14413      191.06099      651.38222    
     87400  -126524.02      690.3111      -125833.71      190.15149      191.07601      651.60894    
     87500  -126541.28      691.40078     -125849.88      190.15557      191.08376      651.83567    
     87600  -126548.7       682.75146     -125865.95      190.15953      191.09507      652.06239    
     87700  -126550.49      679.72497     -125870.76      190.16489      191.11106      652.28912    
     87800  -126545.84      687.88793     -125857.95      190.16672      191.12521      652.51584    
     87900  -126537.97      699.81313     -125838.16      190.16784      191.13969      652.74257    
     88000  -126537.74      705.18059     -125832.56      190.169        191.15708      652.96929    
     88100  -126543.22      697.68093     -125845.54      190.1666       191.17125      653.19602    
     88200  -126552.27      687.68738     -125864.58      190.16448      191.18552      653.42275    
     88300  -126559.11      686.07509     -125873.03      190.16384      191.1952       653.64947    
     88400  -126561.61      695.43735     -125866.17      190.16624      191.20888      653.8762     
     88500  -126553         695.69971     -125857.3       190.16734      191.21656      654.10292    
     88600  -126550.63      694.14927     -125856.49      190.16919      191.22598      654.32965    
     88700  -126551.63      689.04129     -125862.59      190.1725       191.23958      654.55637    
     88800  -126557.26      689.37817     -125867.89      190.17409      191.24615      654.7831     
     88900  -126553.35      685.97823     -125867.37      190.17716      191.25559      655.00982    
     89000  -126544.62      688.3832      -125856.23      190.18309      191.26532      655.23655    
     89100  -126545.35      699.35145     -125846         190.18928      191.26887      655.46327    
     89200  -126550.7       698.1852      -125852.52      190.19709      191.27872      655.69       
     89300  -126552.75      683.82545     -125868.93      190.2081       191.28785      655.91673    
     89400  -126561.91      681.96309     -125879.94      190.21717      191.29566      656.14345    
     89500  -126556.52      683.79798     -125872.72      190.22784      191.30689      656.37018    
     89600  -126548.48      692.98695     -125855.49      190.23659      191.31403      656.5969     
     89700  -126542.35      697.11702     -125845.23      190.24467      191.3215       656.82363    
     89800  -126546.43      695.55774     -125850.88      190.2547       191.33072      657.05035    
     89900  -126551.94      687.09391     -125864.85      190.26384      191.33611      657.27708    
     90000  -126556.34      682.0514      -125874.29      190.27168      191.34307      657.5038     
     90100  -126558.38      687.64164     -125870.73      190.27734      191.34588      657.73053    
     90200  -126553.56      695.37827     -125858.18      190.28278      191.35007      657.95725    
     90300  -126551.06      701.80823     -125849.25      190.29022      191.36039      658.18398    
     90400  -126552.01      698.15276     -125853.86      190.29499      191.36753      658.41071    
     90500  -126556.68      689.06274     -125867.62      190.29875      191.37585      658.63743    
     90600  -126568.2       688.99223     -125879.21      190.30546      191.38872      658.86416    
     90700  -126555.49      677.43293     -125878.06      190.31099      191.39673      659.09088    
     90800  -126555.08      690.94411     -125864.14      190.31807      191.40764      659.31761    
     90900  -126548.72      696.40294     -125852.32      190.32545      191.42157      659.54433    
     91000  -126551.71      697.51513     -125854.19      190.32914      191.43016      659.77106    
     91100  -126555.95      690.95916     -125864.99      190.33465      191.44231      659.99778    
     91200  -126557.31      683.87693     -125873.43      190.34079      191.45285      660.22451    
     91300  -126563.65      689.60799     -125874.04      190.34432      191.46117      660.45123    
     91400  -126557.79      691.36599     -125866.42      190.34806      191.46749      660.67796    
     91500  -126555.52      695.33681     -125860.18      190.35425      191.47114      660.90469    
     91600  -126551.91      689.04266     -125862.87      190.36238      191.47591      661.13141    
     91700  -126559.61      690.72532     -125868.88      190.3697       191.48001      661.35814    
     91800  -126555.39      684.23582     -125871.16      190.37637      191.48595      661.58486    
     91900  -126566.09      697.49291     -125868.59      190.38296      191.49727      661.81159    
     92000  -126567.51      699.2807      -125868.23      190.38807      191.50728      662.03831    
     92100  -126566.97      694.28678     -125872.68      190.3936       191.51636      662.26504    
     92200  -126561.25      682.58076     -125878.67      190.4019       191.52994      662.49176    
     92300  -126565.94      686.39492     -125879.55      190.40996      191.53872      662.71849    
     92400  -126564.58      691.65946     -125872.92      190.42037      191.54768      662.94521    
     92500  -126558.08      692.08689     -125865.99      190.42844      191.55614      663.17194    
     92600  -126558.49      694.29092     -125864.2       190.4355       191.56053      663.39867    
     92700  -126562.54      694.9073      -125867.63      190.44378      191.56717      663.62539    
     92800  -126559.61      687.24946     -125872.36      190.45083      191.57255      663.85212    
     92900  -126562.92      688.09092     -125874.83      190.4576       191.57591      664.07884    
     93000  -126557.5       685.98258     -125871.52      190.46617      191.58537      664.30557    
     93100  -126559.82      694.70076     -125865.12      190.47238      191.59053      664.53229    
     93200  -126556.35      693.29712     -125863.05      190.47911      191.59482      664.75902    
     93300  -126560.37      694.25808     -125866.11      190.48943      191.60531      664.98574    
     93400  -126566.51      693.6539      -125872.86      190.49832      191.61186      665.21247    
     93500  -126565.8       688.08617     -125877.71      190.50563      191.6171       665.43919    
     93600  -126559.61      683.74392     -125875.87      190.51412      191.62636      665.66592    
     93700  -126560.7       692.77219     -125867.93      190.52081      191.63077      665.89265    
     93800  -126557.59      694.16474     -125863.42      190.52814      191.64062      666.11937    
     93900  -126556.59      688.76763     -125867.83      190.53484      191.65283      666.3461     
     94000  -126560.43      684.136       -125876.29      190.53984      191.66161      666.57282    
     94100  -126567.26      686.45647     -125880.8       190.54665      191.67457      666.79955    
     94200  -126570.68      691.19881     -125879.49      190.55262      191.68345      667.02627    
     94300  -126569.11      692.19378     -125876.92      190.56065      191.69208      667.253      
     94400  -126564.64      690.91482     -125873.72      190.57058      191.70303      667.47972    
     94500  -126562.01      692.09479     -125869.91      190.57686      191.70992      667.70645    
     94600  -126555.72      689.24083     -125866.48      190.5829       191.71969      667.93317    
     94700  -126564.91      697.46245     -125867.45      190.5899       191.73022      668.1599     
     94800  -126561.2       688.41479     -125872.79      190.59567      191.73926      668.38663    
     94900  -126569.39      692.68697     -125876.7       190.60309      191.74902      668.61335    
     95000  -126569.5       694.51148     -125874.98      190.61217      191.75753      668.84008    
     95100  -126559.05      688.12809     -125870.92      190.62168      191.76646      669.0668     
     95200  -126558.06      691.63981     -125866.42      190.6311       191.77521      669.29353    
     95300  -126558.9       692.61566     -125866.28      190.63984      191.78316      669.52025    
     95400  -126565.37      695.08564     -125870.29      190.64715      191.79053      669.74698    
     95500  -126567.38      690.70118     -125876.68      190.65387      191.79778      669.9737     
     95600  -126562.77      683.44938     -125879.32      190.66071      191.80455      670.20043    
     95700  -126563.98      687.96751     -125876.01      190.66873      191.81367      670.42715    
     95800  -126572.74      702.64902     -125870.1       190.67457      191.82131      670.65388    
     95900  -126563         694.57778     -125868.42      190.68022      191.82862      670.88061    
     96000  -126563.42      691.94825     -125871.47      190.68778      191.83941      671.10733    
     96100  -126562.31      686.98595     -125875.32      190.69353      191.84782      671.33406    
     96200  -126564.52      689.11998     -125875.4       190.69927      191.85489      671.56078    
     96300  -126559.76      686.90189     -125872.86      190.70862      191.8664       671.78751    
     96400  -126565.72      696.10895     -125869.61      190.71534      191.87399      672.01423    
     96500  -126569.69      700.1587      -125869.53      190.7223       191.88372      672.24096    
     96600  -126567.41      695.78768     -125871.62      190.73142      191.89821      672.46768    
     96700  -126562.03      689.0406      -125872.99      190.73841      191.9098       672.69441    
     96800  -126562.2       691.64657     -125870.55      190.74586      191.92146      672.92113    
     96900  -126558.19      692.8242      -125865.37      190.75511      191.93205      673.14786    
     97000  -126555.5       691.22323     -125864.28      190.76213      191.93845      673.37459    
     97100  -126558.59      688.86396     -125869.73      190.7718       191.94913      673.60131    
     97200  -126564.34      688.86862     -125875.47      190.77994      191.96182      673.82804    
     97300  -126557.15      682.68365     -125874.46      190.78442      191.97333      674.05476    
     97400  -126560.75      693.98909     -125866.76      190.79173      191.98786      674.28149    
     97500  -126553.24      693.45628     -125859.78      190.79718      191.99781      674.50821    
     97600  -126556.63      696.56092     -125860.07      190.80369      192.00793      674.73494    
     97700  -126558.2       691.34724     -125866.85      190.81267      192.02075      674.96166    
     97800  -126562.27      689.33011     -125872.94      190.81873      192.02872      675.18839    
     97900  -126565.03      692.66131     -125872.37      190.8263       192.03759      675.41511    
     98000  -126558.45      691.52366     -125866.93      190.83618      192.04939      675.64184    
     98100  -126556.45      693.44364     -125863.01      190.84242      192.05953      675.86856    
     98200  -126556.9       692.45085     -125864.45      190.84988      192.07669      676.09529    
     98300  -126558.55      689.78243     -125868.77      190.85627      192.09356      676.32202    
     98400  -126560.87      688.33362     -125872.53      190.862        192.10844      676.54874    
     98500  -126557.41      684.86477     -125872.55      190.86958      192.12572      676.77547    
     98600  -126556.12      688.34526     -125867.78      190.8769       192.14041      677.00219    
     98700  -126557.7       695.23418     -125862.47      190.88331      192.15317      677.22892    
     98800  -126560.9       698.52575     -125862.38      190.89198      192.16681      677.45564    
     98900  -126562.72      693.02209     -125869.7       190.89921      192.17712      677.68237    
     99000  -126562.22      686.33333     -125875.89      190.9076       192.19001      677.90909    
     99100  -126555.88      682.83142     -125873.05      190.9162       192.20457      678.13582    
     99200  -126559.95      695.05648     -125864.89      190.92514      192.21858      678.36254    
     99300  -126552.71      693.88622     -125858.82      190.93469      192.23425      678.58927    
     99400  -126556.64      693.75581     -125862.89      190.94575      192.25232      678.816      
     99500  -126560.28      686.3494      -125873.93      190.95289      192.26585      679.04272    
     99600  -126569.33      686.58883     -125882.74      190.96366      192.28296      679.26945    
     99700  -126561.76      682.33084     -125879.43      190.97302      192.29645      679.49617    
     99800  -126554.61      686.92609     -125867.68      190.9823       192.30746      679.7229     
     99900  -126558.5       700.35299     -125858.14      190.99243      192.32008      679.94962    
    100000  -126558.28      698.53786     -125859.74      191.00131      192.33008      680.17635    
Loop time of 34103.9 on 12 procs for 100000 steps with 17820 atoms

Performance: 0.253 ns/day, 94.733 hours/ns, 2.932 timesteps/s, 52.252 katom-step/s
41.1% CPU use with 12 MPI tasks x 1 OpenMP threads

MPI task timing breakdown:
Section |  min time  |  avg time  |  max time  |%varavg| %total
---------------------------------------------------------------
Pair    | 3759.3     | 5025.6     | 6931.3     |1658.1 | 14.74
Neigh   | 58.219     | 66.35      | 80.931     |  81.9 |  0.19
Comm    | 4279.2     | 6417.4     | 7624.4     |1486.1 | 18.82
Output  | 88.201     | 91.016     | 93.323     |  17.3 |  0.27
Modify  | 19742      | 20006      | 20221      | 108.9 | 58.66
Other   |            | 2498       |            |       |  7.32

Nlocal:           1485 ave        2254 max        1032 min
Histogram: 3 3 1 0 1 0 1 2 0 1
Nghost:           4975 ave        5803 max        3786 min
Histogram: 1 0 0 2 2 1 2 1 0 3
Neighs:              0 ave           0 max           0 min
Histogram: 12 0 0 0 0 0 0 0 0 0

Total # of neighbors = 0
Ave neighs/atom = 0
Neighbor list builds = 915
Dangerous builds = 0
Total wall time: 9:28:30
