LAMMPS (2 Aug 2023 - Update 3)
OMP_NUM_THREADS environment is not set. Defaulting to 1 thread. (src/comm.cpp:98)
  using 1 OpenMP thread(s) per MPI task
Reading data file ...
  orthogonal box = (-100 -100 -2.1416495) to (100 100 39.081159)
  4 by 4 by 1 MPI processor grid
  reading atoms ...
  1620 atoms
  read_data CPU = 0.304 seconds
600 atoms in group SR
Deleted 600 atoms, new total = 1020
Replication is creating a 1x1x17 = 17 times larger system...
  orthogonal box = (-100 -100 -2.1416495) to (100 100 698.6461)
  2 by 2 by 4 MPI processor grid
  17340 atoms
  replicate CPU = 0.368 seconds
System init for write_data ...
WARNING: Communication cutoff is 0.0. No ghost atoms will be generated. Atoms may get lost. (src/comm_brick.cpp:210)
Reading airebo potential file CH.airebo with DATE: 2011-10-25
Reading airebo potential file CH.airebo with DATE: 2011-10-25
Reading airebo potential file CH.airebo with DATE: 2011-10-25
Neighbor list info ...
  update: every = 1 steps, delay = 0 steps, check = yes
  max neighbors/atom: 2000, page size: 100000
  master list distance cutoff = 13.2
  ghost atom cutoff = 13.2
  binsize = 6.6, bins = 31 31 107
  6 neighbor lists, perpetual/occasional/extra = 6 0 0
  (1) pair airebo, perpetual, skip from (5)
      attributes: full, newton on, ghost
      pair build: skip/ghost
      stencil: none
      bin: none
  (2) pair airebo, perpetual, skip from (5)
      attributes: full, newton on, ghost
      pair build: skip/ghost
      stencil: none
      bin: none
  (3) pair airebo, perpetual, skip from (5)
      attributes: full, newton on, ghost
      pair build: skip/ghost
      stencil: none
      bin: none
  (4) pair lj/cut, perpetual, skip from (6)
      attributes: half, newton on, cut 13
      pair build: skip
      stencil: none
      bin: none
  (5) neighbor class addition, perpetual
      attributes: full, newton on, ghost
      pair build: full/bin/ghost
      stencil: full/ghost/bin/3d
      bin: standard
  (6) neighbor class addition, perpetual
      attributes: half, newton on, cut 13
      pair build: half/bin/atomonly/newton
      stencil: half/bin/3d
      bin: standard
Setting up sd style minimization ...
  Unit style    : metal
  Current step  : 0
Per MPI rank memory allocation (min/avg/max) = 13.03 | 13.04 | 13.04 Mbytes
   Step          Temp          E_pair         E_mol          TotEng         Press     
         0   0             -128564.6       0             -128564.6      -58.353665    
         1   0             -128564.75      0             -128564.75     -58.244675    
Loop time of 0.608749 on 16 procs for 1 steps with 17340 atoms

45.3% CPU use with 16 MPI tasks x 1 OpenMP threads

Minimization stats:
  Stopping criterion = energy tolerance
  Energy initial, next-to-last, final = 
     -128564.601654959  -128564.601654959  -128564.746651819
  Force two-norm initial, final = 6.0871179 1.1879419
  Force max component initial, final = 0.046231127 0.0090219153
  Final line search alpha, max atom move = 1 0.0090219153
  Iterations, force evaluations = 1 2

MPI task timing breakdown:
Section |  min time  |  avg time  |  max time  |%varavg| %total
---------------------------------------------------------------
Pair    | 0.046129   | 0.07258    | 0.083942   |   3.4 | 11.92
Neigh   | 0          | 0          | 0          |   0.0 |  0.00
Comm    | 0.12508    | 0.17448    | 0.23238    |   7.4 | 28.66
Output  | 0          | 0          | 0          |   0.0 |  0.00
Modify  | 0          | 0          | 0          |   0.0 |  0.00
Other   |            | 0.3617     |            |       | 59.41

Nlocal:        1083.75 ave        1160 max        1008 min
Histogram: 4 0 0 0 4 4 0 0 0 4
Nghost:        3911.25 ave        3995 max        3828 min
Histogram: 2 2 0 0 4 4 0 0 2 2
Neighs:              0 ave           0 max           0 min
Histogram: 16 0 0 0 0 0 0 0 0 0

Total # of neighbors = 0
Ave neighs/atom = 0
Neighbor list builds = 0
Dangerous builds = 0
Setting up Verlet run ...
  Unit style    : metal
  Current step  : 1
  Time step     : 0.001
Per MPI rank memory allocation (min/avg/max) = 13.66 | 13.66 | 13.66 Mbytes
   Step          Temp          E_pair         E_mol          TotEng         Press          Volume    
         1   300           -128564.75      0             -127892.37     -32.624473      28031510     
Loop time of 0.0214746 on 16 procs for 0 steps with 17340 atoms

40.6% CPU use with 16 MPI tasks x 1 OpenMP threads

MPI task timing breakdown:
Section |  min time  |  avg time  |  max time  |%varavg| %total
---------------------------------------------------------------
Pair    | 0          | 0          | 0          |   0.0 |  0.00
Neigh   | 0          | 0          | 0          |   0.0 |  0.00
Comm    | 0          | 0          | 0          |   0.0 |  0.00
Output  | 0          | 0          | 0          |   0.0 |  0.00
Modify  | 0          | 0          | 0          |   0.0 |  0.00
Other   |            | 0.02147    |            |       |100.00

Nlocal:        1083.75 ave        1160 max        1008 min
Histogram: 8 0 0 0 0 0 0 0 0 8
Nghost:        3911.25 ave        3995 max        3828 min
Histogram: 4 4 0 0 0 0 0 0 4 4
Neighs:              0 ave           0 max           0 min
Histogram: 16 0 0 0 0 0 0 0 0 0

Total # of neighbors = 0
Ave neighs/atom = 0
Neighbor list builds = 0
Dangerous builds = 0
WARNING: Dump 2 includes no atom IDs and is not sorted by ID. This may complicate post-processing tasks or visualization (src/dump.cpp:221)
Setting up Verlet run ...
  Unit style    : metal
  Current step  : 0
  Time step     : 0.001
Per MPI rank memory allocation (min/avg/max) = 15.16 | 15.16 | 15.16 Mbytes
   Step         PotEng         KinEng         TotEng           Lx             Ly             Lz      
         0  -128564.75      672.3725      -127892.37      200            200            700.78775    
       100  -128176.57      329.62082     -127846.95      199.99162      199.99132      701.13815    
       200  -128194.96      409.27636     -127785.69      199.98589      199.98541      701.48854    
       300  -128136.95      424.60614     -127712.34      199.99424      199.99372      701.83893    
       400  -128102.02      470.02961     -127631.99      199.98567      199.98423      702.18933    
       500  -128058.52      511.784       -127546.74      199.98078      199.97815      702.53972    
       600  -128017.01      557.78738     -127459.23      199.98987      199.98675      702.89012    
       700  -127970.49      597.02754     -127373.47      199.98151      199.97677      703.24051    
       800  -127924.43      629.86618     -127294.56      199.97577      199.96848      703.5909     
       900  -127899.9       671.40438     -127228.5       199.9868       199.97699      703.9413     
      1000  -127867.13      681.13461     -127185.99      199.97991      199.96667      704.29169    
      1100  -127873.48      694.50691     -127178.98      199.9723       199.95452      704.64209    
      1200  -127876.81      674.90515     -127201.9       199.98134      199.95875      704.99248    
      1300  -127889.48      664.75017     -127224.73      199.9767       199.94739      705.34287    
      1400  -127896.48      667.08056     -127229.4       199.97241      199.9361       705.69327    
      1500  -127873.04      664.36156     -127208.68      199.98132      199.93709      706.04366    
      1600  -127865.68      685.5232      -127180.16      199.97939      199.92548      706.39406    
      1700  -127860.17      692.18648     -127167.98      199.9757       199.91144      706.74445    
      1800  -127853.3       676.9699      -127176.33      199.98324      199.90845      707.09484    
      1900  -127861.72      669.33157     -127192.39      199.9841       199.89656      707.44524    
      2000  -127861.02      661.40501     -127199.61      199.9826       199.88162      707.79563    
      2100  -127853.93      668.13322     -127185.8       199.988        199.87355      708.14602    
      2200  -127834.18      675.58745     -127158.59      199.9898       199.86008      708.49642    
      2300  -127817.33      675.69823     -127141.63      199.99164      199.84554      708.84681    
      2400  -127820.74      676.82984     -127143.91      199.99692      199.83398      709.19721    
      2500  -127825.52      669.29261     -127156.23      199.99932      199.81944      709.5476     
      2600  -127829.63      666.1379      -127163.5       200.00153      199.80424      709.89799    
      2700  -127814.13      659.43491     -127154.69      200.00563      199.79007      710.24839    
      2800  -127803.96      673.7701      -127130.19      200.00741      199.77348      710.59878    
      2900  -127788.46      679.21545     -127109.24      200.01168      199.75959      710.94918    
      3000  -127782.78      679.45348     -127103.32      200.01467      199.7441       711.29957    
      3100  -127787.65      676.62714     -127111.02      200.01444      199.72549      711.64996    
      3200  -127783.12      665.17463     -127117.95      200.01853      199.71133      712.00036    
      3300  -127773.69      662.34576     -127111.34      200.021        199.69621      712.35075    
      3400  -127764.17      673.67082     -127090.5       200.01953      199.67751      712.70114    
      3500  -127752.56      683.41132     -127069.14      200.02314      199.66437      713.05154    
      3600  -127742.01      682.32585     -127059.68      200.02421      199.64977      713.40193    
      3700  -127739.76      677.03411     -127062.72      200.0196       199.63023      713.75233    
      3800  -127733.68      666.01667     -127067.66      200.02134      199.61745      714.10272    
      3900  -127727.92      665.93267     -127061.99      200.02105      199.60406      714.45311    
      4000  -127711.72      667.93483     -127043.79      200.0145       199.58526      714.80351    
      4100  -127701.03      678.99999     -127022.03      200.01447      199.57371      715.1539     
      4200  -127688.17      679.75341     -127008.41      200.01279      199.56154      715.5043     
      4300  -127684.24      677.54431     -127006.7       200.00351      199.54326      715.85469    
      4400  -127677.86      667.72079     -127010.14      200.00098      199.53213      716.20508    
      4500  -127669.61      662.80694     -127006.8       199.99806      199.52111      716.55548    
      4600  -127662.23      671.0859      -126991.14      199.98653      199.5033       716.90587    
      4700  -127645.03      676.37441     -126968.66      199.9811       199.49226      717.25627    
      4800  -127626         675.06157     -126950.93      199.97699      199.48279      717.60666    
      4900  -127620.15      675.19487     -126944.96      199.96464      199.46579      717.95705    
      5000  -127611.54      665.14406     -126946.39      199.9563       199.45395      718.30745    
      5100  -127609.14      664.68709     -126944.45      199.95071      199.44556      718.65784    
      5200  -127597.01      664.60883     -126932.4       199.93749      199.42914      719.00823    
      5300  -127585.07      674.41855     -126910.65      199.92691      199.41583      719.35863    
      5400  -127566.07      677.52782     -126888.54      199.92049      199.40789      719.70902    
      5500  -127556.63      680.5639      -126876.06      199.90742      199.39235      720.05942    
      5600  -127548.39      672.94885     -126875.44      199.8951       199.37749      720.40981    
      5700  -127544.67      669.05571     -126875.61      199.88718      199.36778      720.7602     
      5800  -127535.83      671.53375     -126864.3       199.87421      199.35263      721.1106     
      5900  -127518.48      675.55345     -126842.93      199.86203      199.33686      721.46099    
      6000  -127497.31      678.8119      -126818.5       199.85359      199.32545      721.81139    
      6100  -127481.03      678.65668     -126802.37      199.84124      199.30983      722.16178    
      6200  -127473.61      675.70331     -126797.91      199.82834      199.29208      722.51217    
      6300  -127464.53      668.49497     -126796.04      199.81956      199.27764      722.86257    
      6400  -127456.86      669.62521     -126787.23      199.80871      199.26146      723.21296    
      6500  -127438.51      669.83999     -126768.67      199.79657      199.24261      723.56335    
      6600  -127420.66      676.39035     -126744.27      199.78722      199.22491      723.91375    
      6700  -127402.55      678.90196     -126723.65      199.77787      199.20724      724.26414    
      6800  -127390.76      676.37943     -126714.38      199.76657      199.18701      724.61454    
      6900  -127378.97      668.10865     -126710.86      199.7568       199.16579      724.96493    
      7000  -127373.24      669.0398      -126704.2       199.74835      199.14551      725.31532    
      7100  -127360.29      673.25908     -126687.03      199.73815      199.1233       725.66572    
      7200  -127332.95      670.50893     -126662.44      199.72845      199.0996       726.01611    
      7300  -127320.06      679.81017     -126640.25      199.72115      199.0769       726.36651    
      7400  -127304.66      678.41689     -126626.25      199.71242      199.0525       726.7169     
      7500  -127289.87      669.87224     -126619.99      199.70296      199.02649      727.06729    
      7600  -127279.84      665.97865     -126613.86      199.69589      199.00109      727.41769    
      7700  -127268.62      668.24812     -126600.38      199.68866      198.97477      727.76808    
      7800  -127249.93      672.6731      -126577.26      199.67906      198.9459       728.11848    
      7900  -127223.83      673.14425     -126550.68      199.67146      198.91763      728.46887    
      8000  -127208.91      678.33914     -126530.57      199.66523      198.88989      728.81926    
      8100  -127199         677.60265     -126521.4       199.65687      198.85989      729.16966    
      8200  -127186.72      669.81885     -126516.9       199.64866      198.8301       729.52005    
      8300  -127168.78      663.08793     -126505.69      199.64122      198.80027      729.87044    
      8400  -127156.9       672.41778     -126484.48      199.63321      198.7696       730.22084    
      8500  -127131.03      673.18358     -126457.85      199.62465      198.73857      730.57123    
      8600  -127112.01      677.9921      -126434.02      199.61634      198.70794      730.92163    
      8700  -127093.5       674.5578      -126418.94      199.60722      198.67635      731.27202    
      8800  -127082.84      672.23623     -126410.6       199.59731      198.6445       731.62241    
      8900  -127067.41      667.15236     -126400.25      199.58726      198.61343      731.97281    
      9000  -127047.53      665.39852     -126382.13      199.57768      198.58283      732.3232     
      9100  -127027.35      670.92152     -126356.43      199.56625      198.55107      732.6736     
      9200  -127003.19      672.46662     -126330.73      199.55429      198.52029      733.02399    
      9300  -126986.2       674.21492     -126311.98      199.54236      198.48995      733.37438    
      9400  -126972.84      672.35606     -126300.48      199.52933      198.45886      733.72478    
      9500  -126958.21      668.12498     -126290.08      199.51554      198.4285       734.07517    
      9600  -126940.82      667.97568     -126272.84      199.50093      198.39879      734.42557    
      9700  -126912.42      663.54843     -126248.87      199.48651      198.36936      734.77596    
      9800  -126894.66      673.22575     -126221.44      199.47004      198.33904      735.12635    
      9900  -126874.41      675.66708     -126198.74      199.45323      198.31009      735.47675    
     10000  -126860.68      676.2505      -126184.43      199.43709      198.28256      735.82714    
     10100  -126846.54      672.388       -126174.15      199.41897      198.2535       736.17753    
     10200  -126827.89      669.75217     -126158.14      199.39936      198.22435      736.52793    
     10300  -126803.08      668.75837     -126134.33      199.38117      198.19792      736.87832    
     10400  -126777.45      671.3154      -126106.13      199.36178      198.17023      737.22872    
     10500  -126758.14      678.45774     -126079.68      199.34056      198.14131      737.57911    
     10600  -126740.87      678.8742      -126062         199.32127      198.11598      737.9295     
     10700  -126717.7       667.56204     -126050.14      199.29987      198.08893      738.2799     
     10800  -126699.1       663.35209     -126035.75      199.27707      198.05979      738.63029    
     10900  -126682.76      668.56705     -126014.19      199.25704      198.03423      738.98069    
     11000  -126654.25      668.98672     -125985.26      199.235        198.00785      739.33108    
     11100  -126633.63      676.64615     -125956.99      199.21173      197.97911      739.68147    
     11200  -126612.3       676.01783     -125936.28      199.19118      197.95263      740.03187    
     11300  -126597         675.25772     -125921.74      199.16835      197.92552      740.38226    
     11400  -126577.47      671.21533     -125906.26      199.14417      197.89646      740.73265    
     11500  -126558.41      674.38255     -125884.03      199.12315      197.8694       741.08305    
     11600  -126530.5       675.43807     -125855.06      199.10155      197.84163      741.43344    
     11700  -126504.39      678.74994     -125825.64      199.07736      197.81264      741.78384    
     11800  -126476.06      673.29486     -125802.77      199.05621      197.78519      742.13423    
     11900  -126461.44      674.76858     -125786.67      199.03486      197.75597      742.48462    
     12000  -126439.04      667.88851     -125771.15      199.01136      197.72535      742.83502    
     12100  -126416.25      665.93983     -125750.31      198.9908       197.69714      743.18541    
     12200  -126390.12      668.8163      -125721.3       198.97008      197.66661      743.53581    
     12300  -126358.89      669.33169     -125689.55      198.94889      197.63499      743.8862     
     12400  -126348.66      683.03648     -125665.62      198.93072      197.60631      744.23659    
     12500  -126324.29      674.59306     -125649.7       198.91063      197.57434      744.58699    
     12600  -126304.26      669.93629     -125634.33      198.89032      197.54034      744.93738    
     12700  -126289.73      676.75928     -125612.97      198.87384      197.51002      745.28778    
     12800  -126252.89      670.07365     -125582.81      198.85571      197.47746      745.63817    
     12900  -126227.06      677.34432     -125549.72      198.83637      197.44203      745.98856    
     13000  -126200.16      677.77845     -125522.38      198.8222       197.41101      746.33896    
     13100  -126175.27      672.72628     -125502.54      198.80578      197.37775      746.68935    
     13200  -126156.72      670.4775      -125486.25      198.78823      197.34205      747.03974    
     13300  -126133.77      667.77901     -125465.99      198.7747       197.30938      747.39014    
     13400  -126104.43      667.10809     -125437.32      198.75983      197.27545      747.74053    
     13500  -126081.11      677.03128     -125404.08      198.74364      197.23938      748.09093    
     13600  -126049.29      675.61722     -125373.67      198.7312       197.20657      748.44132    
     13700  -126027.62      676.81307     -125350.81      198.71849      197.17327      748.79171    
     13800  -126000.94      668.50162     -125332.44      198.7029       197.13746      749.14211    
     13900  -125978.39      666.38129     -125312.01      198.69042      197.10457      749.4925     
     14000  -125952.92      666.88634     -125286.03      198.67891      197.07243      749.8429     
     14100  -125929.55      677.05445     -125252.5       198.6634       197.03755      750.19329    
     14200  -125896.09      675.47868     -125220.61      198.65022      197.0053       750.54368    
     14300  -125866.83      670.97211     -125195.86      198.63893      196.97511      750.89408    
     14400  -125844.75      671.03309     -125173.72      198.6238       196.9423       751.24447    
     14500  -125824.96      676.23961     -125148.72      198.60879      196.91102      751.59487    
     14600  -125792.83      670.73221     -125122.1       198.59727      196.88307      751.94526    
     14700  -125762.3       668.12849     -125094.17      198.58267      196.85319      752.29565    
     14800  -125741.35      676.23192     -125065.11      198.56688      196.8241       752.64605    
     14900  -125710.02      674.71186     -125035.3       198.55291      196.79786      752.99644    
     15000  -125684.86      676.6573      -125008.2       198.53776      196.77082      753.34683    
     15100  -125661.67      675.38649     -124986.28      198.52118      196.74422      753.69723    
     15200  -125634.04      668.5543      -124965.48      198.50618      196.72058      754.04762    
     15300  -125604.85      665.98826     -124938.86      198.49037      196.69713      754.39802    
     15400  -125572.08      673.40889     -124898.67      198.47306      196.67291      754.74841    
     15500  -125539.25      671.04101     -124868.21      198.45713      196.65203      755.0988     
     15600  -125520.82      677.23473     -124843.59      198.44002      196.63112      755.4492     
     15700  -125490.1       668.06362     -124822.04      198.42201      196.60981      755.79959    
     15800  -125467.5       670.30844     -124797.2       198.40542      196.5913       756.14999    
     15900  -125437.62      674.33796     -124763.28      198.38834      196.57299      756.50038    
     16000  -125401.1       676.24418     -124724.85      198.36938      196.55386      756.85077    
     16100  -125372.33      675.3704      -124696.96      198.35263      196.53775      757.20117    
     16200  -125347.13      671.20553     -124675.92      198.33519      196.52147      757.55156    
     16300  -125317.5       665.61289     -124651.89      198.31587      196.50397      757.90195    
     16400  -125289.07      667.54033     -124621.53      198.29909      196.48917      758.25235    
     16500  -125261.4       673.14103     -124588.26      198.28177      196.47468      758.60274    
     16600  -125232.16      675.35414     -124556.81      198.26251      196.4587       758.95314    
     16700  -125200.7       673.55904     -124527.14      198.24612      196.44508      759.30353    
     16800  -125170.94      673.22095     -124497.72      198.23024      196.43178      759.65392    
     16900  -125138.64      669.11938     -124469.52      198.21189      196.4169       760.00432    
     17000  -125109.69      666.42824     -124443.26      198.19612      196.40353      760.35471    
     17100  -125081.21      665.40421     -124415.81      198.18135      196.39064      760.70511    
     17200  -125049.28      670.09094     -124379.19      198.16414      196.37558      761.0555     
     17300  -125016.52      674.79225     -124341.73      198.1495       196.36258      761.40589    
     17400  -124987.83      677.47107     -124310.36      198.13708      196.3505       761.75629    
     17500  -124954.53      669.5511      -124284.98      198.12247      196.336        762.10668    
     17600  -124930.63      668.36192     -124262.27      198.10853      196.32147      762.45708    
     17700  -124903.26      662.61089     -124240.65      198.0977       196.30853      762.80747    
     17800  -124876.7       661.15717     -124215.54      198.08599      196.29379      763.15786    
     17900  -124830.63      658.40598     -124172.22      198.07375      196.27854      763.50826    
     18000  -124803.5       670.71288     -124132.79      198.06417      196.26438      763.85865    
     18100  -124765.52      671.26965     -124094.25      198.05554      196.24972      764.20904    
     18200  -124730.44      672.02023     -124058.42      198.04542      196.23329      764.55944    
     18300  -124702.03      674.46969     -124027.56      198.03687      196.21811      764.90983    
     18400  -124676.81      673.56768     -124003.24      198.02981      196.20291      765.26023    
     18500  -124647.93      669.43077     -123978.49      198.02214      196.18623      765.61062    
     18600  -124612.32      668.21291     -123944.1       198.01451      196.16976      765.96101    
     18700  -124574.78      668.14987     -123906.63      198.0081       196.15368      766.31141    
     18800  -124545.22      672.89428     -123872.33      198.00211      196.13672      766.6618     
     18900  -124508.16      669.84131     -123838.32      197.99581      196.11957      767.0122     
     19000  -124480.66      675.9919      -123804.67      197.9902       196.10306      767.36259    
     19100  -124441.19      670.70382     -123770.48      197.98538      196.08636      767.71298    
     19200  -124411.08      674.38368     -123736.7       197.97996      196.06919      768.06338    
     19300  -124376.9       670.60413     -123706.3       197.97488      196.05235      768.41377    
     19400  -124350.49      671.16006     -123679.33      197.97048      196.03593      768.76417    
     19500  -124318.83      670.31192     -123648.51      197.96545      196.01929      769.11456    
     19600  -124282.53      673.2611      -123609.27      197.96065      196.00343      769.46495    
     19700  -124243.85      676.80861     -123567.05      197.95578      195.98756      769.81535    
     19800  -124210.42      675.23744     -123535.19      197.95102      195.9721       770.16574    
     19900  -124179.7       671.87566     -123507.82      197.94573      195.95668      770.51613    
     20000  -124147.36      668.72828     -123478.64      197.93988      195.94124      770.86653    
     20100  -124112.27      670.27986     -123441.99      197.93499      195.92712      771.21692    
     20200  -124070.59      674.74743     -123395.85      197.92969      195.91318      771.56732    
     20300  -124031.33      670.56462     -123360.76      197.92271      195.89827      771.91771    
     20400  -124007.09      673.7529      -123333.33      197.91628      195.88449      772.2681     
     20500  -123973.06      668.29281     -123304.77      197.91053      195.87226      772.6185     
     20600  -123937.5       668.46311     -123269.04      197.9026       195.85907      772.96889    
     20700  -123894.86      670.62159     -123224.24      197.89491      195.84672      773.31929    
     20800  -123868.4       683.5173      -123184.88      197.88801      195.83589      773.66968    
     20900  -123827.62      673.41909     -123154.2       197.87881      195.82416      774.02007    
     21000  -123800.67      674.9362      -123125.73      197.86944      195.81322      774.37047    
     21100  -123765         671.42952     -123093.57      197.86093      195.80356      774.72086    
     21200  -123720.16      665.35453     -123054.81      197.85102      195.79372      775.07125    
     21300  -123683.72      676.44034     -123007.28      197.84008      195.78424      775.42165    
     21400  -123652.09      678.59768     -122973.49      197.82973      195.77601      775.77204    
     21500  -123615.01      669.36159     -122945.65      197.81909      195.76794      776.12244    
     21600  -123586.14      672.42195     -122913.71      197.8061       195.75902      776.47283    
     21700  -123548.96      671.80272     -122877.16      197.79388      195.75141      776.82322    
     21800  -123511.46      677.24695     -122834.21      197.78217      195.74468      777.17362    
     21900  -123466.41      677.90858     -122788.5       197.76887      195.73708      777.52401    
     22000  -123434.8       679.76502     -122755.03      197.75557      195.73018      777.87441    
     22100  -123400.4       675.00548     -122725.39      197.7427       195.72417      778.2248     
     22200  -123365.46      669.74925     -122695.71      197.72888      195.71715      778.57519    
     22300  -123326.28      666.21803     -122660.06      197.71444      195.70981      778.92559    
     22400  -123290.79      673.17788     -122617.61      197.70134      195.70427      779.27598    
     22500  -123244.88      673.96318     -122570.92      197.68673      195.69724      779.62638    
     22600  -123213.21      676.37018     -122536.84      197.67285      195.69026      779.97677    
     22700  -123181.22      674.73398     -122506.49      197.6599       195.68453      780.32716    
     22800  -123143.47      669.95368     -122473.51      197.64532      195.67717      780.67756    
     22900  -123107.05      671.21213     -122435.83      197.6319       195.66953      781.02795    
     23000  -123060.62      673.50553     -122387.12      197.61968      195.66317      781.37834    
     23100  -123029.18      682.37168     -122346.81      197.60599      195.65535      781.72874    
     23200  -122986.72      671.24878     -122315.48      197.59231      195.64599      782.07913    
     23300  -122955.53      671.38178     -122284.15      197.58108      195.63847      782.42953    
     23400  -122916.99      669.20613     -122247.78      197.56934      195.63019      782.77992    
     23500  -122876.75      668.56317     -122208.19      197.55678      195.61973      783.13031    
     23600  -122837.02      672.19344     -122164.82      197.54571      195.6098       783.48071    
     23700  -122792.67      678.23835     -122114.43      197.53586      195.60078      783.8311     
     23800  -122756.69      679.66622     -122077.03      197.5249       195.58926      784.1815     
     23900  -122719.59      673.06937     -122046.52      197.51446      195.57716      784.53189    
     24000  -122685.64      671.16309     -122014.48      197.50527      195.56606      784.88228    
     24100  -122644.97      666.69381     -121978.28      197.496        195.55394      785.23268    
     24200  -122604.66      668.36283     -121936.29      197.48688      195.54109      785.58307    
     24300  -122562.21      675.12519     -121887.09      197.478        195.52775      785.93346    
     24400  -122521.49      672.70891     -121848.79      197.46996      195.51457      786.28386    
     24500  -122485.58      669.45776     -121816.12      197.46208      195.50088      786.63425    
     24600  -122449.64      668.74123     -121780.89      197.45285      195.48508      786.98465    
     24700  -122407.37      665.79485     -121741.57      197.44503      195.47045      787.33504    
     24800  -122373.68      673.09892     -121700.58      197.43895      195.45677      787.68543    
     24900  -122334.71      675.08103     -121659.63      197.43087      195.44027      788.03583    
     25000  -122292.16      673.16599     -121618.99      197.4225       195.42359      788.38622    
     25100  -122253.76      677.60618     -121576.16      197.41676      195.40923      788.73662    
     25200  -122215.82      683.01134     -121532.8       197.40915      195.39244      789.08701    
     25300  -122167.36      670.33931     -121497.02      197.40063      195.37464      789.4374     
     25400  -122133.06      667.51221     -121465.55      197.39423      195.3597       789.7878     
     25500  -122097.46      669.41995     -121428.04      197.38671      195.34251      790.13819    
     25600  -122053.98      671.53249     -121382.45      197.37844      195.32505      790.48859    
     25700  -122005.28      671.40577     -121333.88      197.37192      195.30996      790.83898    
     25800  -121972.16      677.66485     -121294.49      197.36428      195.29334      791.18937    
     25900  -121930.66      671.91703     -121258.74      197.35536      195.27535      791.53977    
     26000  -121889.54      666.81152     -121222.73      197.3474       195.25985      791.89016    
     26100  -121851.63      671.54923     -121180.08      197.3384       195.24379      792.24055    
     26200  -121802.19      675.1149      -121127.08      197.32927      195.22692      792.59095    
     26300  -121758.84      671.68977     -121087.15      197.32081      195.2125       792.94134    
     26400  -121724.02      670.29351     -121053.72      197.31016      195.19656      793.29174    
     26500  -121685.53      667.19472     -121018.33      197.29931      195.18048      793.64213    
     26600  -121645.78      668.8121      -120976.97      197.28996      195.16636      793.99252    
     26700  -121608.65      676.18095     -120932.47      197.2784       195.15176      794.34292    
     26800  -121563.56      673.33871     -120890.22      197.26577      195.13642      794.69331    
     26900  -121524.12      674.79401     -120849.32      197.25456      195.12307      795.04371    
     27000  -121482.79      674.91816     -120807.87      197.2422       195.10983      795.3941     
     27100  -121435.92      672.27625     -120763.65      197.22732      195.09484      795.74449    
     27200  -121390.52      676.54791     -120713.98      197.21404      195.08194      796.09489    
     27300  -121351.97      679.86482     -120672.11      197.20115      195.07088      796.44528    
     27400  -121315.04      674.02113     -120641.02      197.18423      195.05653      796.79568    
     27500  -121271.8       668.39445     -120603.4       197.16827      195.04345      797.14607    
     27600  -121227.5       669.12187     -120558.37      197.1545       195.03373      797.49646    
     27700  -121182.29      671.49139     -120510.8       197.13675      195.02095      797.84686    
     27800  -121142.18      675.62582     -120466.55      197.11896      195.00806      798.19725    
     27900  -121100.67      674.51149     -120426.16      197.10391      194.9989       798.54764    
     28000  -121066.3       674.75152     -120391.55      197.086        194.98755      798.89804    
     28100  -121017.73      658.98277     -120358.75      197.06593      194.97422      799.24843    
     28200  -120976.13      666.28815     -120309.85      197.0491       194.96394      799.59883    
     28300  -120930.25      670.99549     -120259.26      197.03149      194.95372      799.94922    
     28400  -120892.58      679.3153      -120213.26      197.01112      194.94094      800.29961    
     28500  -120844.87      676.80641     -120168.06      196.99307      194.9293       800.65001    
     28600  -120799.24      672.66769     -120126.57      196.97628      194.91957      801.0004     
     28700  -120762.15      670.79482     -120091.35      196.95547      194.90637      801.3508     
     28800  -120723.39      669.12938     -120054.26      196.93657      194.89349      801.70119    
     28900  -120677.24      670.84541     -120006.39      196.92063      194.88332      802.05158    
     29000  -120624.38      669.77759     -119954.61      196.90058      194.86973      802.40198    
     29100  -120582.85      671.47734     -119911.38      196.88096      194.85533      802.75237    
     29200  -120540.47      671.55265     -119868.92      196.86527      194.84382      803.10276    
     29300  -120498.04      669.25286     -119828.79      196.84711      194.83038      803.45316    
     29400  -120455.27      667.64255     -119787.63      196.82735      194.81439      803.80355    
     29500  -120416.77      674.74715     -119742.03      196.81296      194.80197      804.15395    
     29600  -120359.1       667.63287     -119691.47      196.79642      194.78799      804.50434    
     29700  -120321.5       677.74649     -119643.75      196.77602      194.77005      804.85473    
     29800  -120274.68      672.67624     -119602         196.7616       194.75567      805.20513    
     29900  -120232.53      662.07402     -119570.45      196.74761      194.74167      805.55552    
     30000  -120198.83      669.96399     -119528.87      196.72818      194.7222       805.90592    
     30100  -120147.19      667.93298     -119479.26      196.7134       194.70503      806.25631    
     30200  -120102.32      672.27695     -119430.05      196.70126      194.69026      806.6067     
     30300  -120056.35      671.89432     -119384.46      196.68318      194.66987      806.9571     
     30400  -120013.05      673.68182     -119339.37      196.66698      194.64947      807.30749    
     30500  -119964.61      672.80664     -119291.81      196.65588      194.63341      807.65789    
     30600  -119913.92      675.69258     -119238.23      196.64057      194.61386      808.00828    
     30700  -119871.89      676.81944     -119195.07      196.6241       194.59169      808.35867    
     30800  -119830.15      669.45592     -119160.7       196.61296      194.57358      808.70907    
     30900  -119783.42      663.99475     -119119.43      196.59933      194.55399      809.05946    
     31000  -119748.8       673.34436     -119075.46      196.58321      194.53063      809.40985    
     31100  -119701.94      673.21352     -119028.73      196.57128      194.51064      809.76025    
     31200  -119649.57      674.92728     -118974.64      196.55923      194.49094      810.11064    
     31300  -119600.67      673.11575     -118927.55      196.54347      194.46717      810.46104    
     31400  -119563.01      674.02596     -118888.98      196.53109      194.4457       810.81143    
     31500  -119517.86      668.83929     -118849.02      196.52014      194.42587      811.16182    
     31600  -119473.17      669.2797      -118803.89      196.50476      194.40203      811.51222    
     31700  -119430.81      673.59224     -118757.22      196.49138      194.3797       811.86261    
     31800  -119382.73      674.8937      -118707.84      196.48018      194.35962      812.21301    
     31900  -119331.14      677.75294     -118653.39      196.46491      194.33644      812.5634     
     32000  -119282.83      674.09786     -118608.73      196.45094      194.31365      812.91379    
     32100  -119241.71      669.65653     -118572.05      196.43905      194.29353      813.26419    
     32200  -119200.73      671.32636     -118529.41      196.42385      194.27139      813.61458    
     32300  -119158.11      673.62468     -118484.49      196.40845      194.24892      813.96498    
     32400  -119110.67      673.55153     -118437.12      196.39578      194.22888      814.31537    
     32500  -119057.39      672.43501     -118384.95      196.37994      194.20743      814.66576    
     32600  -119012.06      677.92758     -118334.13      196.36269      194.18576      815.01616    
     32700  -118965.14      673.87086     -118291.27      196.34834      194.16619      815.36655    
     32800  -118926.87      668.43282     -118258.44      196.33247      194.14667      815.71694    
     32900  -118886.07      673.07973     -118212.99      196.31403      194.1262       816.06734    
     33000  -118829.2       668.52341     -118160.68      196.29844      194.10775      816.41773    
     33100  -118780.75      671.58704     -118109.16      196.28108      194.08923      816.76813    
     33200  -118733.53      670.43294     -118063.1       196.26101      194.06977      817.11852    
     33300  -118691.6       673.13165     -118018.47      196.2433       194.05196      817.46891    
     33400  -118643.69      669.86338     -117973.83      196.22505      194.03522      817.81931    
     33500  -118598.02      666.47495     -117931.54      196.20384      194.01715      818.1697     
     33600  -118554.34      667.31169     -117887.03      196.18361      193.9998       818.5201     
     33700  -118507.03      672.9539      -117834.08      196.16435      193.98405      818.87049    
     33800  -118450.88      669.70573     -117781.17      196.14271      193.96748      819.22088    
     33900  -118405.82      672.51352     -117733.31      196.12042      193.95004      819.57128    
     34000  -118358.11      668.14962     -117689.96      196.09955      193.9346       819.92167    
     34100  -118320.65      666.57788     -117654.07      196.07769      193.91948      820.27206    
     34200  -118278.5       669.62798     -117608.87      196.05482      193.90273      820.62246    
     34300  -118226.6       672.44802     -117554.16      196.03328      193.8876       820.97285    
     34400  -118171.46      667.18898     -117504.27      196.01186      193.87363      821.32325    
     34500  -118126.43      670.78353     -117455.65      195.98818      193.85704      821.67364    
     34600  -118079.51      672.59731     -117406.92      195.9655       193.84153      822.02403    
     34700  -118030.01      672.55732     -117357.45      195.94409      193.82765      822.37443    
     34800  -117987.39      679.23396     -117308.16      195.92099      193.81168      822.72482    
     34900  -117934.04      671.27055     -117262.77      195.89801      193.7956       823.07522    
     35000  -117892.12      669.0669      -117223.05      195.87692      193.7816       823.42561    
     35100  -117853.62      672.90184     -117180.72      195.85522      193.76629      823.776      
     35200  -117799.43      670.73163     -117128.7       195.83209      193.74932      824.1264     
     35300  -117744.17      673.48496     -117070.68      195.81137      193.73452      824.47679    
     35400  -117701.59      678.03453     -117023.56      195.79069      193.71921      824.82719    
     35500  -117654.36      674.38364     -116979.98      195.76796      193.70136      825.17758    
     35600  -117608.15      669.95027     -116938.2       195.74769      193.68536      825.52797    
     35700  -117558.41      662.54353     -116895.87      195.72867      193.66985      825.87837    
     35800  -117509.84      669.2106      -116840.63      195.70683      193.65082      826.22876    
     35900  -117460.4       675.79648     -116784.61      195.68742      193.63333      826.57915    
     36000  -117410.53      675.38172     -116735.15      195.67011      193.61758      826.92955    
     36100  -117366.39      677.35818     -116689.03      195.64995      193.59772      827.27994    
     36200  -117319.15      673.06015     -116646.09      195.63043      193.57774      827.63034    
     36300  -117275.77      671.9642      -116603.81      195.61436      193.5612       827.98073    
     36400  -117225.4       670.90556     -116554.49      195.59653      193.54153      828.33112    
     36500  -117172.35      676.41188     -116495.94      195.57787      193.51996      828.68152    
     36600  -117124.03      678.08447     -116445.95      195.56282      193.50223      829.03191    
     36700  -117073.18      672.16623     -116401.02      195.54729      193.48269      829.38231    
     36800  -117029.28      671.04062     -116358.24      195.52882      193.45917      829.7327     
     36900  -116989         671.87662     -116317.12      195.51342      193.43929      830.08309    
     37000  -116930.21      664.33983     -116265.87      195.50037      193.42032      830.43349    
     37100  -116880.75      674.04585     -116206.71      195.48334      193.3964       830.78388    
     37200  -116830.27      674.78662     -116155.49      195.46813      193.37511      831.13428    
     37300  -116776.39      669.36762     -116107.02      195.45641      193.35622      831.48467    
     37400  -116733.27      672.64687     -116060.62      195.44087      193.33241      831.83506    
     37500  -116678.55      661.38066     -116017.17      195.42556      193.3099       832.18546    
     37600  -116641.68      668.65254     -115973.03      195.41475      193.2908       832.53585    
     37700  -116590.46      672.89759     -115917.56      195.40018      193.2669       832.88624    
     37800  -116532.83      671.34512     -115861.49      195.38433      193.24355      833.23664    
     37900  -116479.22      666.42796     -115812.79      195.37424      193.22488      833.58703    
     38000  -116439.98      673.84735     -115766.13      195.36139      193.20301      833.93743    
     38100  -116388.24      665.32014     -115722.92      195.34459      193.17884      834.28782    
     38200  -116351.9       671.24723     -115680.65      195.33295      193.15901      834.63821    
     38300  -116291.04      664.84731     -115626.19      195.32126      193.13894      834.98861    
     38400  -116239.44      670.68254     -115568.76      195.30458      193.11559      835.339      
     38500  -116187.79      669.45399     -115518.34      195.29105      193.09528      835.6894     
     38600  -116145.02      674.10943     -115470.91      195.28058      193.07789      836.03979    
     38700  -116092.37      668.5269      -115423.85      195.26359      193.05581      836.39018    
     38800  -116041.26      666.69985     -115374.56      195.24699      193.03476      836.74058    
     38900  -116003.23      681.97439     -115321.25      195.23618      193.01902      837.09097    
     39000  -115936.57      670.87261     -115265.7       195.22008      192.99949      837.44136    
     39100  -115890.12      675.14017     -115214.98      195.20087      192.97837      837.79176    
     39200  -115849.13      675.54627     -115173.59      195.18777      192.96275      838.14215    
     39300  -115799.68      667.65477     -115132.03      195.17287      192.94646      838.49255    
     39400  -115746.92      667.54348     -115079.38      195.15323      192.92717      838.84294    
     39500  -115696.6       672.45162     -115024.15      195.13786      192.91162      839.19333    
     39600  -115646.7       673.96196     -114972.73      195.12269      192.89746      839.54373    
     39700  -115595.21      672.43397     -114922.78      195.10223      192.87969      839.89412    
     39800  -115542.36      667.7574      -114874.6       195.08436      192.86384      840.24452    
     39900  -115498.65      668.56406     -114830.08      195.06828      192.85105      840.59491    
     40000  -115449.46      663.54413     -114785.91      195.0487       192.83592      840.9453     
     40100  -115400.45      669.24892     -114731.2       195.02919      192.82028      841.2957     
     40200  -115342.45      668.81626     -114673.63      195.01273      192.80894      841.64609    
     40300  -115299.51      677.75331     -114621.75      194.99302      192.79507      841.99649    
     40400  -115251.41      678.49923     -114572.92      194.97205      192.77951      842.34688    
     40500  -115200.54      670.34987     -114530.19      194.95517      192.76898      842.69727    
     40600  -115156.47      666.69063     -114489.77      194.93625      192.75674      843.04767    
     40700  -115099.89      664.98605     -114434.91      194.91421      192.74136      843.39806    
     40800  -115046.15      667.57823     -114378.57      194.89687      192.73067      843.74845    
     40900  -114997.02      672.61201     -114324.41      194.88009      192.7208       844.09885    
     41000  -114945.34      675.50243     -114269.84      194.85784      192.70558      844.44924    
     41100  -114883.91      666.30999     -114217.6       194.83872      192.69331      844.79964    
     41200  -114846.87      674.63451     -114172.24      194.82337      192.68508      845.15003    
     41300  -114797.78      666.86275     -114130.92      194.80287      192.67093      845.50042    
     41400  -114756.16      677.25168     -114078.91      194.78185      192.65642      845.85082    
     41500  -114695.52      675.0337      -114020.49      194.76697      192.64795      846.20121    
     41600  -114642.01      674.42363     -113967.59      194.74954      192.63644      846.55161    
     41700  -114587.56      668.87436     -113918.68      194.72766      192.62014      846.902      
     41800  -114542.76      672.41748     -113870.34      194.71095      192.60899      847.25239    
     41900  -114490.08      666.26171     -113823.82      194.6965       192.59922      847.60279    
     42000  -114448.43      666.68328     -113781.75      194.67632      192.58346      847.95318    
     42100  -114397.85      669.40405     -113728.44      194.65783      192.56883      848.30358    
     42200  -114338.41      670.44916     -113667.96      194.6448       192.55917      848.65397    
     42300  -114289.35      675.25955     -113614.09      194.62819      192.5452       849.00436    
     42400  -114236.69      674.84953     -113561.84      194.60934      192.52817      849.35476    
     42500  -114192.84      679.4722      -113513.37      194.59622      192.51662      849.70515    
     42600  -114142.95      672.28276     -113470.67      194.58284      192.50401      850.05554    
     42700  -114092.38      668.30854     -113424.08      194.5655       192.48616      850.40594    
     42800  -114035.3       669.32042     -113365.98      194.5513       192.47138      850.75633    
     42900  -113975.59      668.64831     -113306.95      194.54005      192.45842      851.10673    
     43000  -113934.83      677.58965     -113257.24      194.52561      192.44164      851.45712    
     43100  -113881.7       670.42535     -113211.28      194.51122      192.42449      851.80751    
     43200  -113832.16      666.00118     -113166.15      194.50085      192.41016      852.15791    
     43300  -113781.8       665.98582     -113115.82      194.48883      192.39387      852.5083     
     43400  -113731.75      677.67362     -113054.07      194.47486      192.37507      852.8587     
     43500  -113677.03      678.76096     -112998.27      194.46499      192.35942      853.20909    
     43600  -113625.34      674.68006     -112950.66      194.45509      192.34368      853.55948    
     43700  -113578.9       671.09086     -112907.81      194.44212      192.32454      853.90988    
     43800  -113532.45      674.0659      -112858.38      194.432        192.30688      854.26027    
     43900  -113478.63      674.02769     -112804.61      194.42356      192.29143      854.61066    
     44000  -113421.99      670.48703     -112751.51      194.41211      192.27307      854.96106    
     44100  -113369.26      670.03945     -112699.22      194.40084      192.25356      855.31145    
     44200  -113319.58      672.72791     -112646.85      194.39222      192.23773      855.66185    
     44300  -113269.5       676.48206     -112593.01      194.38209      192.22027      856.01224    
     44400  -113209.35      675.45532     -112533.9       194.37063      192.2008       856.36263    
     44500  -113159.69      676.23114     -112483.46      194.362        192.18524      856.71303    
     44600  -113116.61      674.96532     -112441.65      194.35264      192.16914      857.06342    
     44700  -113064.91      671.11622     -112393.8       194.34001      192.14915      857.41382    
     44800  -113011.32      668.8258      -112342.49      194.33023      192.13363      857.76421    
     44900  -112954.84      668.31404     -112286.52      194.32187      192.11901      858.1146     
     45000  -112899.23      674.4366      -112224.79      194.30874      192.09997      858.465      
     45100  -112850.61      675.3626      -112175.25      194.29638      192.08311      858.81539    
     45200  -112803.48      672.43984     -112131.04      194.28774      192.06945      859.16579    
     45300  -112758.32      675.95348     -112082.36      194.27589      192.05282      859.51618    
     45400  -112704.2       671.71779     -112032.49      194.26127      192.0357       859.86657    
     45500  -112651.53      671.6786      -111979.85      194.25088      192.02123      860.21697    
     45600  -112602.78      680.76573     -111922.02      194.23971      192.00723      860.56736    
     45700  -112537.03      672.43301     -111864.6       194.22485      191.9916       860.91775    
     45800  -112493.22      675.14859     -111818.08      194.21233      191.9765       861.26815    
     45900  -112444.74      669.3654      -111775.37      194.2007       191.96435      861.61854    
     46000  -112396.04      672.31885     -111723.73      194.18673      191.95091      861.96894    
     46100  -112346.29      675.83722     -111670.45      194.17286      191.93645      862.31933    
     46200  -112294.18      678.78052     -111615.4       194.15954      191.92445      862.66972    
     46300  -112233.88      676.58759     -111557.29      194.14561      191.91206      863.02012    
     46400  -112182.67      677.95064     -111504.72      194.13111      191.89885      863.37051    
     46500  -112134.11      671.52512     -111462.58      194.11652      191.88705      863.72091    
     46600  -112084.41      670.45592     -111413.95      194.10229      191.87561      864.0713     
     46700  -112033.85      674.02101     -111359.83      194.08772      191.86391      864.42169    
     46800  -111977.87      676.14168     -111301.73      194.07233      191.85292      864.77209    
     46900  -111916.18      675.76793     -111240.41      194.05636      191.84144      865.12248    
     47000  -111862.96      677.45258     -111185.5       194.04089      191.83037      865.47287    
     47100  -111825.41      678.63637     -111146.77      194.02548      191.82096      865.82327    
     47200  -111777.83      678.51201     -111099.31      194.00927      191.80995      866.17366    
     47300  -111715.34      666.72959     -111048.61      193.99204      191.79841      866.52406    
     47400  -111666.05      671.56318     -110994.49      193.97658      191.7899       866.87445    
     47500  -111614.88      677.82281     -110937.06      193.9611       191.78049      867.22484    
     47600  -111558.53      677.42452     -110881.11      193.94328      191.76912      867.57524    
     47700  -111511.39      678.76147     -110832.63      193.92632      191.75956      867.92563    
     47800  -111456.48      667.28998     -110789.19      193.9111       191.7506       868.27603    
     47900  -111407.83      670.3876      -110737.44      193.89346      191.74019      868.62642    
     48000  -111354.73      673.93527     -110680.8       193.87571      191.72971      868.97681    
     48100  -111297.28      678.19365     -110619.09      193.8611       191.72106      869.32721    
     48200  -111243.74      681.11862     -110562.62      193.84436      191.71171      869.6776     
     48300  -111198.32      675.11956     -110523.2       193.8265       191.70028      870.028      
     48400  -111142.18      667.16218     -110475.02      193.81098      191.69063      870.37839    
     48500  -111090.84      668.36877     -110422.47      193.79528      191.68116      870.72878    
     48600  -111041.96      674.45942     -110367.5       193.77864      191.66961      871.07918    
     48700  -110986.4       676.24615     -110310.15      193.76299      191.65827      871.42957    
     48800  -110935.47      680.4992      -110254.97      193.74779      191.64777      871.77996    
     48900  -110881.73      671.98468     -110209.75      193.73273      191.63621      872.13036    
     49000  -110835.34      672.42489     -110162.92      193.71834      191.62485      872.48075    
     49100  -110780.97      672.14935     -110108.82      193.70387      191.61331      872.83115    
     49200  -110724.06      674.04521     -110050.02      193.68887      191.60003      873.18154    
     49300  -110667.61      679.6872      -109987.93      193.67541      191.58805      873.53193    
     49400  -110615.59      681.7538      -109933.84      193.66277      191.57605      873.88233    
     49500  -110563.43      670.51024     -109892.92      193.64899      191.56171      874.23272    
     49600  -110512.88      668.80381     -109844.08      193.63537      191.54787      874.58312    
     49700  -110461.95      669.13297     -109792.82      193.62414      191.53512      874.93351    
     49800  -110417.34      678.22774     -109739.11      193.61213      191.52091      875.2839     
     49900  -110359.29      674.75619     -109684.53      193.59905      191.50582      875.6343     
     50000  -110304.14      674.80958     -109629.33      193.58702      191.49102      875.98469    
     50100  -110252.76      677.59985     -109575.16      193.57644      191.47667      876.33509    
     50200  -110201.44      675.91528     -109525.52      193.5648       191.4611       876.68548    
     50300  -110156.26      677.56738     -109478.69      193.55217      191.4445       877.03587    
     50400  -110097.41      671.61559     -109425.79      193.54227      191.42925      877.38627    
     50500  -110040.61      675.28796     -109365.32      193.53211      191.4144       877.73666    
     50600  -109984.09      682.61893     -109301.47      193.51981      191.39692      878.08705    
     50700  -109924.84      672.8083      -109252.04      193.50839      191.37961      878.43745    
     50800  -109877.48      672.55396     -109204.93      193.49883      191.36467      878.78784    
     50900  -109826.77      672.32741     -109154.45      193.48778      191.34761      879.13824    
     51000  -109773.11      669.02619     -109104.08      193.47639      191.32963      879.48863    
     51100  -109722.02      667.79221     -109054.23      193.46671      191.31448      879.83902    
     51200  -109672.25      664.16425     -109008.08      193.45662      191.29752      880.18942    
     51300  -109621.57      663.70662     -108957.86      193.44485      191.27902      880.53981    
     51400  -109565.38      672.75165     -108892.63      193.43483      191.26303      880.89021    
     51500  -109504.3       672.50883     -108831.8       193.42461      191.24648      881.2406     
     51600  -109456.4       674.14628     -108782.26      193.41268      191.22785      881.59099    
     51700  -109404.76      670.22937     -108734.53      193.40218      191.21155      881.94139    
     51800  -109351.44      669.73447     -108681.71      193.39329      191.19592      882.29178    
     51900  -109302.4       675.10381     -108627.29      193.38122      191.17798      882.64217    
     52000  -109245.97      674.112       -108571.85      193.36894      191.16071      882.99257    
     52100  -109191.98      674.97546     -108517         193.36009      191.14518      883.34296    
     52200  -109140.75      674.68602     -108466.07      193.3489       191.12904      883.69336    
     52300  -109084.17      667.28244     -108416.89      193.33483      191.11102      884.04375    
     52400  -109034.14      670.32342     -108363.81      193.32462      191.09528      884.39414    
     52500  -108986.51      680.28314     -108306.23      193.31409      191.08139      884.74454    
     52600  -108922         677.71763     -108244.28      193.29934      191.0641       885.09493    
     52700  -108874.38      684.9101      -108189.47      193.28671      191.04773      885.44533    
     52800  -108822         676.96669     -108145.03      193.27561      191.03525      885.79572    
     52900  -108769.18      675.03781     -108094.15      193.2615       191.01963      886.14611    
     53000  -108717.12      676.22469     -108040.9       193.24599      191.00203      886.49651    
     53100  -108660.46      672.16321     -107988.3       193.233        190.99022      886.8469     
     53200  -108606.19      667.71476     -107938.47      193.22026      190.97714      887.1973     
     53300  -108552.09      662.85891     -107889.23      193.20345      190.96063      887.54769    
     53400  -108498.24      666.26835     -107831.97      193.18787      190.94758      887.89808    
     53500  -108442.8       678.31728     -107764.48      193.17494      190.93636      888.24848    
     53600  -108386.39      678.33398     -107708.06      193.1572       190.92097      888.59887    
     53700  -108335.36      675.22584     -107660.14      193.13923      190.90743      888.94926    
     53800  -108280.99      672.60341     -107608.39      193.12588      190.89714      889.29966    
     53900  -108233.27      676.86721     -107556.4       193.10932      190.88427      889.65005    
     54000  -108174.36      668.43326     -107505.93      193.09014      190.87096      890.00045    
     54100  -108123.91      670.6911      -107453.22      193.0753       190.86027      890.35084    
     54200  -108071.7       670.61104     -107401.09      193.0582       190.84848      890.70123    
     54300  -108022.82      668.63066     -107354.19      193.03807      190.83452      891.05163    
     54400  -107960.29      665.21421     -107295.07      193.02228      190.82359      891.40202    
     54500  -107904.79      674.2795      -107230.51      193.00619      190.81358      891.75242    
     54600  -107847.73      673.68437     -107174.04      192.98574      190.79959      892.10281    
     54700  -107796.03      670.26661     -107125.77      192.96779      190.78703      892.4532     
     54800  -107749.19      676.69347     -107072.49      192.95223      190.77784      892.8036     
     54900  -107694.13      674.83257     -107019.3       192.93379      190.76564      893.15399    
     55000  -107638.53      670.66425     -106967.87      192.91401      190.75178      893.50439    
     55100  -107584.76      669.72386     -106915.04      192.89769      190.74193      893.85478    
     55200  -107534.45      672.33986     -106862.11      192.88126      190.73131      894.20517    
     55300  -107481.43      666.52055     -106814.91      192.8612       190.71696      894.55557    
     55400  -107421.56      663.46736     -106758.09      192.84257      190.70404      894.90596    
     55500  -107370.64      677.93498     -106692.7       192.82694      190.69376      895.25635    
     55600  -107306.91      672.47476     -106634.44      192.80843      190.68036      895.60675    
     55700  -107252.77      671.14346     -106581.63      192.78903      190.66578      895.95714    
     55800  -107206.51      677.0797      -106529.43      192.7736       190.65528      896.30754    
     55900  -107154.43      677.24445     -106477.18      192.75655      190.6425       896.65793    
     56000  -107091.5       668.5967      -106422.91      192.73631      190.62698      897.00832    
     56100  -107039.19      672.78195     -106366.41      192.71995      190.61431      897.35872    
     56200  -106987.2       675.53177     -106311.67      192.70427      190.6021       897.70911    
     56300  -106933.96      675.93179     -106258.03      192.68481      190.58606      898.05951    
     56400  -106877.13      674.1611      -106202.97      192.66884      190.57202      898.4099     
     56500  -106824.43      676.34642     -106148.08      192.65392      190.55976      898.76029    
     56600  -106770.89      674.71189     -106096.17      192.63501      190.54267      899.11069    
     56700  -106713.49      669.05344     -106044.44      192.6178       190.52633      899.46108    
     56800  -106661.08      671.71032     -105989.37      192.60476      190.51432      899.81147    
     56900  -106609.93      673.93355     -105936         192.58807      190.4978       900.16187    
     57000  -106551.61      663.88961     -105887.72      192.57001      190.47913      900.51226    
     57100  -106502.09      673.00362     -105829.09      192.55614      190.46474      900.86266    
     57200  -106438.7       670.35424     -105768.34      192.5424       190.44973      901.21305    
     57300  -106380.46      670.23532     -105710.22      192.52517      190.43048      901.56344    
     57400  -106331.75      674.88262     -105656.87      192.51074      190.4136       901.91384    
     57500  -106278.73      673.78388     -105604.95      192.49732      190.39754      902.26423    
     57600  -106224.46      677.01278     -105547.45      192.48222      190.37925      902.61463    
     57700  -106166.75      676.67741     -105490.07      192.46869      190.36194      902.96502    
     57800  -106113.02      676.27201     -105436.75      192.45544      190.345        903.31541    
     57900  -106055         671.46714     -105383.54      192.44089      190.32579      903.66581    
     58000  -105993.05      667.01802     -105326.03      192.42775      190.30791      904.0162     
     58100  -105949.81      680.6112      -105269.2       192.41487      190.28996      904.3666     
     58200  -105890.22      674.38795     -105215.83      192.40089      190.2707       904.71699    
     58300  -105830.87      671.93808     -105158.93      192.38719      190.25133      905.06738    
     58400  -105777.86      676.76814     -105101.1       192.37406      190.23233      905.41778    
     58500  -105720.18      675.47011     -105044.71      192.36069      190.21347      905.76817    
     58600  -105666.81      675.33669     -104991.48      192.34786      190.1947       906.11856    
     58700  -105612.09      677.52033     -104934.57      192.33356      190.17515      906.46896    
     58800  -105557.54      676.84868     -104880.69      192.31992      190.1554       906.81935    
     58900  -105507.29      681.76359     -104825.53      192.30726      190.13648      907.16975    
     59000  -105437.75      668.73979     -104769.01      192.29328      190.11719      907.52014    
     59100  -105387.56      675.60492     -104711.95      192.27946      190.09784      907.87053    
     59200  -105334.28      679.53768     -104654.75      192.26669      190.07924      908.22093    
     59300  -105274.71      677.30989     -104597.4       192.2527       190.0603       908.57132    
     59400  -105221.24      679.90914     -104541.33      192.23782      190.04058      908.92172    
     59500  -105165.18      678.0102      -104487.17      192.22443      190.02204      909.27211    
     59600  -105109.93      678.41565     -104431.51      192.2108       190.00438      909.6225     
     59700  -105049.16      673.42249     -104375.74      192.19477      189.98378      909.9729     
     59800  -104996.33      677.2031      -104319.12      192.17977      189.96505      910.32329    
     59900  -104938.16      676.42977     -104261.73      192.16684      189.9486       910.67369    
     60000  -104875.35      670.53155     -104204.82      192.15089      189.92913      911.02408    
     60100  -104820.98      674.67367     -104146.31      192.13474      189.91038      911.37447    
     60200  -104767.14      677.8179      -104089.32      192.12133      189.89416      911.72487    
     60300  -104704.95      672.02001     -104032.93      192.10566      189.87595      912.07526    
     60400  -104644         668.75563     -103975.24      192.08746      189.85695      912.42565    
     60500  -104596.77      678.2372      -103918.53      192.07339      189.84158      912.77605    
     60600  -104539.84      677.72765     -103862.11      192.05832      189.82505      913.12644    
     60700  -104478.48      674.16173     -103804.32      192.03882      189.8063       913.47684    
     60800  -104418.2       672.54227     -103745.66      192.02256      189.79031      913.82723    
     60900  -104370.1       681.70138     -103688.4       192.00776      189.77596      914.17762    
     61000  -104308.16      677.55077     -103630.61      191.98846      189.75797      914.52802    
     61100  -104249.64      676.54035     -103573.1       191.96969      189.74138      914.87841    
     61200  -104191.72      677.39149     -103514.33      191.95376      189.72713      915.22881    
     61300  -104128.21      671.47844     -103456.73      191.93527      189.71147      915.5792     
     61400  -104076.5       679.26696     -103397.23      191.91551      189.69487      915.92959    
     61500  -104014.97      675.53408     -103339.43      191.89709      189.67976      916.27999    
     61600  -103958.26      676.52774     -103281.73      191.87928      189.66551      916.63038    
     61700  -103896.84      674.82608     -103222.01      191.85859      189.64895      916.98077    
     61800  -103837.84      673.91032     -103163.93      191.83955      189.63409      917.33117    
     61900  -103782.65      676.98237     -103105.67      191.82167      189.62056      917.68156    
     62000  -103725.81      678.67051     -103047.14      191.80009      189.60431      918.03196    
     62100  -103660.31      672.82422     -102987.49      191.78014      189.58872      918.38235    
     62200  -103603.34      675.10514     -102928.24      191.76226      189.57625      918.73274    
     62300  -103545.34      676.57281     -102868.77      191.74211      189.5618       919.08314    
     62400  -103485.07      677.39528     -102807.67      191.72107      189.54523      919.43353    
     62500  -103422.73      673.86351     -102748.87      191.70234      189.53153      919.78393    
     62600  -103365.54      676.45798     -102689.08      191.68254      189.51785      920.13432    
     62700  -103301.6       673.43445     -102628.17      191.66213      189.50181      920.48471    
     62800  -103244.37      676.60169     -102567.77      191.64276      189.48735      920.83511    
     62900  -103180.65      673.1431      -102507.51      191.62311      189.47388      921.1855     
     63000  -103119.72      673.20319     -102446.52      191.60307      189.45835      921.5359     
     63100  -103056.76      671.28887     -102385.47      191.58346      189.44322      921.88629    
     63200  -103001.55      678.16722     -102323.39      191.56416      189.42961      922.23668    
     63300  -102943.97      681.30408     -102262.67      191.5438       189.4139       922.58708    
     63400  -102878.73      677.78763     -102200.94      191.52439      189.39828      922.93747    
     63500  -102817.85      679.70899     -102138.14      191.50521      189.38368      923.28786    
     63600  -102755.86      679.50867     -102076.35      191.4858       189.36854      923.63826    
     63700  -102691.11      677.48116     -102013.62      191.46668      189.35281      923.98865    
     63800  -102627.74      676.49749     -101951.24      191.44812      189.33732      924.33905    
     63900  -102565.28      676.241       -101889.04      191.42872      189.32171      924.68944    
     64000  -102502.38      675.32575     -101827.05      191.40946      189.30558      925.03983    
     64100  -102437.63      672.56389     -101765.06      191.39181      189.28962      925.39023    
     64200  -102376.74      675.09555     -101701.64      191.37307      189.27344      925.74062    
     64300  -102321.59      682.97815     -101638.61      191.35432      189.25689      926.09102    
     64400  -102252.06      677.89309     -101574.17      191.33684      189.24032      926.44141    
     64500  -102186.38      676.11324     -101510.27      191.31914      189.22355      926.7918     
     64600  -102120.4       673.98898     -101446.41      191.30144      189.20697      927.1422     
     64700  -102063.09      681.6078      -101381.49      191.28335      189.18859      927.49259    
     64800  -101990.45      673.1958      -101317.26      191.26639      189.17103      927.84298    
     64900  -101929.05      677.02647     -101252.02      191.24965      189.15416      928.19338    
     65000  -101865.07      677.51067     -101187.56      191.23262      189.13583      928.54377    
     65100  -101800.29      677.29396     -101122.99      191.21656      189.11776      928.89417    
     65200  -101732.21      674.91746     -101057.29      191.20014      189.1          929.24456    
     65300  -101665.63      674.80206     -100990.83      191.18294      189.08075      929.59495    
     65400  -101605.92      680.7375      -100925.18      191.16762      189.06243      929.94535    
     65500  -101538.16      678.30709     -100859.85      191.15252      189.04421      930.29574    
     65600  -101467.52      674.31929     -100793.2       191.13613      189.02515      930.64614    
     65700  -101403.97      678.17941     -100725.79      191.12052      189.00584      930.99653    
     65800  -101335.64      677.69608     -100657.95      191.10571      188.98722      931.34692    
     65900  -101270.49      679.76587     -100590.72      191.09041      188.96859      931.69732    
     66000  -101198.21      675.67275     -100522.54      191.07408      188.94841      932.04771    
     66100  -101137.18      683.06755     -100454.11      191.0592       188.92906      932.39811    
     66200  -101069.72      683.51481     -100386.21      191.04425      188.91014      932.7485     
     66300  -100991.22      673.04057     -100318.18      191.02805      188.88974      933.09889    
     66400  -100925.63      676.97506     -100248.66      191.0132       188.87058      933.44929    
     66500  -100863.44      684.32698     -100179.12      190.99911      188.85231      933.79968    
     66600  -100783.3       674.93377     -100108.36      190.98196      188.83096      934.15007    
     66700  -100717.54      679.47064     -100038.07      190.96645      188.81103      934.50047    
     66800  -100650.34      682.25103     -99968.09       190.95341      188.79368      934.85086    
     66900  -100577.96      678.99302     -99898.964      190.93621      188.77226      935.20126    
     67000  -100512.94      683.84283     -99829.094      190.91997      188.75187      935.55165    
     67100  -100437.31      677.99489     -99759.312      190.90699      188.73488      935.90204    
     67200  -100368.64      679.13133     -99689.506      190.89051      188.71412      936.25244    
     67300  -100294.16      677.93742     -99616.221      190.87426      188.69388      936.60283    
     67400  -100226.9       683.03174     -99543.864      190.86059      188.67645      936.95323    
     67500  -100155.8       684.59368     -99471.21       190.84412      188.65659      937.30362    
     67600  -100072.3       672.64699     -99399.656      190.8269       188.63565      937.65401    
     67700  -100010.99      684.81293     -99326.176      190.81327      188.61872      938.00441    
     67800  -99933.823      680.1871      -99253.636      190.79693      188.59935      938.3548     
     67900  -99856.059      675.64453     -99180.414      190.7792       188.57912      938.7052     
     68000  -99785.184      679.19581     -99105.989      190.76485      188.5624       939.05559    
     68100  -99707.682      675.6876      -99031.994      190.7487       188.54404      939.40598    
     68200  -99636.879      680.16067     -98956.718      190.73046      188.5237       939.75638    
     68300  -99568.4        686.29056     -98882.11       190.71494      188.50662      940.10677    
     68400  -99482.689      675.81474     -98806.875      190.69901      188.48953      940.45716    
     68500  -99415.711      683.36837     -98732.343      190.67985      188.4695       940.80756    
     68600  -99338.881      682.8448      -98656.036      190.66386      188.45295      941.15795    
     68700  -99264.798      684.62216     -98580.176      190.64726      188.43645      941.50835    
     68800  -99181.33       677.96415     -98503.366      190.62787      188.41765      941.85874    
     68900  -99111.451      683.83206     -98427.619      190.61056      188.40101      942.20913    
     69000  -99029.774      678.53914     -98351.234      190.5937       188.38524      942.55953    
     69100  -98959.014      685.26735     -98273.747      190.57373      188.36681      942.90992    
     69200  -98877.841      682.39309     -98195.447      190.55533      188.3503       943.26032    
     69300  -98799.977      682.38299     -98117.594      190.53848      188.33547      943.61071    
     69400  -98723.942      684.81574     -98039.126      190.51875      188.31785      943.9611     
     69500  -98642.803      682.58193     -97960.221      190.49889      188.30057      944.3115     
     69600  -98562.85       682.2761      -97880.574      190.48156      188.28614      944.66189    
     69700  -98477.099      677.63763     -97799.462      190.46241      188.26945      945.01228    
     69800  -98401.953      684.15924     -97717.794      190.44199      188.25222      945.36268    
     69900  -98322.058      684.75812     -97637.3        190.42396      188.23763      945.71307    
     70000  -98237.626      680.33864     -97557.287      190.40527      188.22213      946.06347    
     70100  -98164.567      686.55855     -97478.009      190.38507      188.20498      946.41386    
     70200  -98087.675      691.16198     -97396.513      190.36637      188.18998      946.76425    
     70300  -97997.662      680.49487     -97317.167      190.34733      188.17482      947.11465    
     70400  -97918.911      683.12108     -97235.79       190.32708      188.15801      947.46504    
     70500  -97836.032      682.8252      -97153.207      190.30776      188.14231      947.81544    
     70600  -97755.961      686.42211     -97069.539      190.28856      188.12746      948.16583    
     70700  -97678.719      689.75547     -96988.963      190.26855      188.11128      948.51622    
     70800  -97589.879      685.83108     -96904.048      190.24837      188.09514      948.86662    
     70900  -97511.546      693.86717     -96817.679      190.22925      188.08009      949.21701    
     71000  -97424.687      690.01722     -96734.67       190.20956      188.06438      949.56741    
     71100  -97345.125      693.26515     -96651.86       190.18877      188.04771      949.9178     
     71200  -97254.09       688.28665     -96565.803      190.16941      188.03222      950.26819    
     71300  -97177.778      695.1435      -96482.634      190.15019      188.01666      950.61859    
     71400  -97093.764      695.46694     -96398.297      190.12973      187.99992      950.96898    
     71500  -97005.767      695.12866     -96310.639      190.10977      187.98382      951.31937    
     71600  -96916.161      692.24744     -96223.913      190.09036      187.96799      951.66977    
     71700  -96831.455      693.64835     -96137.806      190.07027      187.95113      952.02016    
     71800  -96748.532      699.18771     -96049.344      190.05025      187.9346       952.37056    
     71900  -96655.001      695.69007     -95959.311      190.03111      187.91872      952.72095    
     72000  -96573.896      702.03008     -95871.866      190.01105      187.90133      953.07134    
     72100  -96483.603      697.61933     -95785.984      189.99148      187.88449      953.42174    
     72200  -96391.644      694.20342     -95697.44       189.97217      187.86781      953.77213    
     72300  -96302.731      694.89582     -95607.836      189.95247      187.85044      954.12253    
     72400  -96221.532      702.60709     -95518.925      189.93322      187.83305      954.47292    
     72500  -96124.334      698.92816     -95425.406      189.91413      187.81596      954.82331    
     72600  -96039.542      701.82898     -95337.713      189.89444      187.79799      955.17371    
[...]
     81600  -126203.53      631.98247     -125571.54      190.14685      187.87139      986.70916    
     81700  -126170.53      748.56577     -125421.96      190.16702      187.89294      987.05955    
     81800  -126121.68      713.4685      -125408.21      190.18944      187.91321      987.40994    
     81900  -126110.97      637.62578     -125473.35      190.208        187.92822      987.76034    
     82000  -126130.32      642.30225     -125488.02      190.23377      187.9481       988.11073    
     82100  -126132.99      679.61988     -125453.37      190.26503      187.97116      988.46113    
     82200  -126134.08      705.11095     -125428.97      190.28874      187.98732      988.81152    
     82300  -126172.91      700.96827     -125471.94      190.31841      188.01235      989.16191    
     82400  -126199.37      643.44755     -125555.93      190.35324      188.03638      989.51231    
     82500  -126219.99      628.79696     -125591.2       190.38688      188.05563      989.8627     
     82600  -126221.85      664.4366      -125557.41      190.42049      188.07628      990.21309    
     82700  -126208.58      698.81134     -125509.77      190.45164      188.09829      990.56349    
     82800  -126211.68      698.88662     -125512.8       190.47694      188.11188      990.91388    
     82900  -126211.45      652.60228     -125558.84      190.50477      188.12673      991.26428    
     83000  -126213.15      636.95536     -125576.19      190.52847      188.14043      991.61467    
     83100  -126189.41      659.75283     -125529.66      190.54981      188.15645      991.96506    
     83200  -126159.33      693.39344     -125465.93      190.57195      188.17307      992.31546    
     83300  -126154.62      708.38428     -125446.23      190.5904       188.18587      992.66585    
     83400  -126178.96      686.72998     -125492.23      190.60276      188.20494      993.01625    
     83500  -126208.26      651.45914     -125556.8       190.61123      188.22174      993.36664    
     83600  -126218.07      633.87204     -125584.2       190.61799      188.23836      993.71703    
     83700  -126227.89      670.17928     -125557.71      190.62956      188.26091      994.06743    
     83800  -126211.36      683.93123     -125527.42      190.63658      188.2783       994.41782    
     83900  -126229.44      695.60634     -125533.83      190.65056      188.29553      994.76822    
     84000  -126235.8       679.20202     -125556.59      190.67068      188.31281      995.11861    
     84100  -126263.02      650.52066     -125612.5       190.68698      188.32922      995.469      
     84200  -126274.2       645.21391     -125628.98      190.69933      188.3471       995.8194     
     84300  -126248.21      655.75103     -125592.46      190.71028      188.36862      996.16979    
     84400  -126211.7       681.68147     -125530.02      190.7204       188.38409      996.52018    
     84500  -126190.52      699.59789     -125490.92      190.73034      188.3973       996.87058    
     84600  -126203.65      695.36026     -125508.29      190.74142      188.41668      997.22097    
     84700  -126219.77      656.00711     -125563.76      190.74817      188.43219      997.57137    
     84800  -126254.19      658.51177     -125595.68      190.74855      188.44366      997.92176    
     84900  -126266.12      670.88569     -125595.23      190.75498      188.45605      998.27215    
     85000  -126274.84      685.29357     -125589.54      190.7582       188.46516      998.62255    
     85100  -126286.44      685.52481     -125600.92      190.75255      188.47432      998.97294    
     85200  -126297.01      666.0153      -125630.99      190.75479      188.48925      999.32334    
     85300  -126297.72      647.62337     -125650.09      190.75228      188.49981      999.67373    
     85400  -126279.74      653.38433     -125626.36      190.74599      188.50802      1000.0241    
     85500  -126243.43      674.65201     -125568.78      190.74         188.51702      1000.3745    
     85600  -126219.15      698.75616     -125520.4       190.72983      188.52099      1000.7249    
     85700  -126192.64      683.16439     -125509.48      190.71984      188.53006      1001.0753    
     85800  -126205.69      678.2875      -125527.4       190.71482      188.5462       1001.4257    
     85900  -126226.52      667.65617     -125558.86      190.71002      188.55691      1001.7761    
     86000  -126240.57      662.24399     -125578.33      190.70624      188.56686      1002.1265    
     86100  -126257.33      679.67612     -125577.65      190.71015      188.58151      1002.4769    
     86200  -126273.5       689.9157      -125583.59      190.71653      188.59498      1002.8273    
     86300  -126289.27      672.67818     -125616.59      190.72149      188.60446      1003.1777    
     86400  -126307.85      656.43526     -125651.41      190.72609      188.61802      1003.5281    
     86500  -126303.1       650.12859     -125652.97      190.73373      188.63003      1003.8785    
     86600  -126283.62      662.3538      -125621.26      190.74008      188.63465      1004.2289    
     86700  -126261.93      679.81594     -125582.11      190.74966      188.64407      1004.5792    
     86800  -126249.6       687.67224     -125561.93      190.75779      188.65352      1004.9296    
     86900  -126250.99      680.57722     -125570.42      190.75985      188.65586      1005.28      
     87000  -126282.17      680.33253     -125601.84      190.76329      188.66131      1005.6304    
     87100  -126299.74      661.93573     -125637.8       190.76979      188.66928      1005.9808    
     87200  -126327.74      666.00058     -125661.73      190.77297      188.6707       1006.3312    
     87300  -126350.59      677.49254     -125673.1       190.77826      188.67298      1006.6816    
     87400  -126349.35      670.88278     -125678.46      190.77872      188.67019      1007.032     
     87500  -126338.58      661.32078     -125677.26      190.77439      188.66514      1007.3824    
     87600  -126321.76      664.54793     -125657.21      190.77636      188.66413      1007.7328    
     87700  -126303.74      674.5436      -125629.2       190.78092      188.66339      1008.0832    
     87800  -126288.27      677.62093     -125610.65      190.77485      188.66068      1008.4336    
     87900  -126282.09      678.80597     -125603.29      190.76677      188.66132      1008.784     
     88000  -126299.1       687.64428     -125611.46      190.76501      188.66324      1009.1344    
     88100  -126309.12      669.39728     -125639.73      190.76617      188.66705      1009.4848    
     88200  -126339.55      664.84859     -125674.71      190.76306      188.66586      1009.8352    
     88300  -126364.49      663.0872      -125701.4       190.75688      188.66114      1010.1855    
     88400  -126374.76      661.28923     -125713.47      190.75556      188.66287      1010.5359    
     88500  -126385.47      672.85068     -125712.62      190.75556      188.6648       1010.8863    
     88600  -126385.62      672.49781     -125713.13      190.75541      188.6664       1011.2367    
     88700  -126391.87      674.29993     -125717.57      190.75323      188.66867      1011.5871    
     88800  -126374.49      661.38105     -125713.11      190.74494      188.66911      1011.9375    
     88900  -126363.73      670.34517     -125693.38      190.7369       188.67257      1012.2879    
     89000  -126339.75      677.642       -125662.11      190.73039      188.67649      1012.6383    
     89100  -126323.75      686.20984     -125637.54      190.72295      188.67962      1012.9887    
     89200  -126323.8       685.43381     -125638.36      190.71356      188.68553      1013.3391    
     89300  -126342.44      679.13344     -125663.31      190.70515      188.69355      1013.6895    
     89400  -126344.12      654.12739     -125689.99      190.69308      188.70018      1014.0399    
     89500  -126356.27      658.91939     -125697.35      190.68119      188.7064       1014.3903    
     89600  -126347.43      664.8378      -125682.59      190.67264      188.71382      1014.7407    
     89700  -126333.97      674.7529      -125659.22      190.65933      188.71506      1015.0911    
     89800  -126323.67      681.13263     -125642.53      190.64755      188.71391      1015.4415    
     89900  -126317.8       676.44464     -125641.36      190.6409       188.71491      1015.7918    
     90000  -126311.53      667.61246     -125643.92      190.63101      188.7098       1016.1422    
     90100  -126303.45      666.48285     -125636.97      190.62033      188.70431      1016.4926    
     90200  -126294.38      675.04206     -125619.34      190.60981      188.70119      1016.843     
     90300  -126291.89      686.21553     -125605.68      190.59359      188.69386      1017.1934    
     90400  -126295.24      679.07691     -125616.16      190.57967      188.68632      1017.5438    
     90500  -126323.9       677.44763     -125646.45      190.56714      188.67917      1017.8942    
     90600  -126341.49      666.92006     -125674.57      190.55284      188.67183      1018.2446    
     90700  -126349.95      665.9491      -125684         190.53913      188.66731      1018.595     
     90800  -126339.28      664.84398     -125674.44      190.52118      188.65712      1018.9454    
     90900  -126325.3       675.10512     -125650.2       190.50575      188.6432       1019.2958    
     91000  -126309.09      680.64529     -125628.44      190.49224      188.62804      1019.6462    
     91100  -126301.74      678.13919     -125623.6       190.47923      188.61311      1019.9966    
     91200  -126312.2       677.05333     -125635.15      190.46504      188.59474      1020.347     
     91300  -126315.57      667.44193     -125648.13      190.45334      188.57592      1020.6974    
     91400  -126318.35      664.50174     -125653.85      190.4434       188.5595       1021.0478    
     91500  -126330.23      675.43301     -125654.8       190.43403      188.54017      1021.3981    
     91600  -126339.66      677.6057      -125662.05      190.42936      188.52199      1021.7485    
     91700  -126355.42      679.18995     -125676.23      190.41907      188.49964      1022.0989    
     91800  -126361.77      669.39256     -125692.37      190.40851      188.47814      1022.4493    
     91900  -126359.26      659.9045      -125699.36      190.39943      188.45677      1022.7997    
     92000  -126361.64      672.39817     -125689.24      190.38943      188.43092      1023.1501    
     92100  -126337.59      667.00453     -125670.59      190.38455      188.40634      1023.5005    
     92200  -126329.49      678.04817     -125651.44      190.37751      188.38338      1023.8509    
     92300  -126331.8       687.38346     -125644.42      190.37193      188.36155      1024.2013    
     92400  -126331.81      676.7935      -125655.01      190.36863      188.34546      1024.5517    
     92500  -126340.59      666.34867     -125674.24      190.36271      188.32945      1024.9021    
     92600  -126348.8       660.36852     -125688.43      190.35511      188.31297      1025.2525    
     92700  -126353.64      666.04174     -125687.6       190.34865      188.29685      1025.6029    
     92800  -126349.72      669.08521     -125680.63      190.34332      188.27847      1025.9533    
     92900  -126356.86      680.59758     -125676.26      190.33842      188.25704      1026.3037    
     93000  -126351.2       671.05751     -125680.14      190.33426      188.23898      1026.6541    
     93100  -126348.06      663.19646     -125684.86      190.32686      188.21908      1027.0045    
     93200  -126336.8       659.79436     -125677.01      190.32208      188.20169      1027.3548    
     93300  -126330.91      672.90686     -125658         190.32206      188.19148      1027.7052    
     93400  -126330.54      688.83481     -125641.71      190.31813      188.17947      1028.0556    
     93500  -126328.07      678.98088     -125649.09      190.31271      188.16957      1028.406     
     93600  -126351.32      673.31739     -125678         190.30924      188.16095      1028.7564    
     93700  -126366.82      661.13183     -125705.69      190.30208      188.14921      1029.1068    
     93800  -126379.24      665.00146     -125714.24      190.29264      188.1404       1029.4572    
     93900  -126370.64      662.79239     -125707.85      190.28715      188.1356       1029.8076    
     94000  -126380.81      679.91474     -125700.9       190.276        188.12797      1030.158     
     94100  -126369.71      669.30205     -125700.41      190.26398      188.12222      1030.5084    
     94200  -126370.38      668.59823     -125701.78      190.25608      188.11959      1030.8588    
     94300  -126372.16      671.92582     -125700.23      190.24572      188.1173       1031.2092    
     94400  -126364.77      669.24696     -125695.53      190.23362      188.11296      1031.5596    
     94500  -126362.89      677.44349     -125685.45      190.22619      188.10845      1031.91      
     94600  -126349.95      677.9131      -125672.04      190.2193       188.09889      1032.2604    
     94700  -126346.48      678.82509     -125667.66      190.21367      188.09075      1032.6108    
     94800  -126360.96      681.25231     -125679.71      190.2104       188.08239      1032.9611    
     94900  -126370.81      668.13873     -125702.67      190.20668      188.07262      1033.3115    
     95000  -126368.71      657.91117     -125710.8       190.20229      188.06295      1033.6619    
     95100  -126359.68      666.3813      -125693.3       190.2003       188.05223      1034.0123    
     95200  -126344.86      679.38381     -125665.47      190.19842      188.04142      1034.3627    
     95300  -126345.57      688.25356     -125657.32      190.19722      188.03515      1034.7131    
     95400  -126358.19      685.28832     -125672.91      190.19264      188.02776      1035.0635    
     95500  -126368.84      672.64605     -125696.19      190.18714      188.02429      1035.4139    
     95600  -126361.84      657.46158     -125704.38      190.18534      188.02294      1035.7643    
     95700  -126361.12      672.79527     -125688.32      190.18041      188.01954      1036.1147    
     95800  -126352.15      682.63707     -125669.52      190.17258      188.0146       1036.4651    
     95900  -126348.01      679.60806     -125668.41      190.16552      188.01125      1036.8155    
     96000  -126357.52      670.62184     -125686.9       190.15819      188.00919      1037.1659    
     96100  -126359.33      656.20993     -125703.12      190.14711      188.00588      1037.5163    
     96200  -126362.44      665.58097     -125696.86      190.13747      188.00409      1037.8667    
     96300  -126349.51      673.44789     -125676.07      190.12912      188.00404      1038.2171    
     96400  -126344.57      685.01759     -125659.55      190.11551      187.99833      1038.5674    
     96500  -126348.91      683.76001     -125665.15      190.10693      187.9945       1038.9178    
     96600  -126354.96      670.17827     -125684.78      190.09742      187.98677      1039.2682    
     96700  -126376.82      674.20067     -125702.62      190.08482      187.97715      1039.6186    
     96800  -126373.31      664.28645     -125709.02      190.07906      187.97355      1039.969     
     96900  -126371.41      676.26116     -125695.14      190.06866      187.96459      1040.3194    
     97000  -126357.43      682.75545     -125674.67      190.05629      187.9543       1040.6698    
     97100  -126344.43      676.4377      -125667.99      190.04994      187.94759      1041.0202    
     97200  -126350.48      674.97572     -125675.5       190.03714      187.9353       1041.3706    
     97300  -126353.6       665.85827     -125687.75      190.02455      187.92427      1041.721     
     97400  -126354.72      665.20473     -125689.51      190.01442      187.91493      1042.0714    
     97500  -126352.14      675.72216     -125676.41      190.00018      187.89957      1042.4218    
     97600  -126342.7       681.29218     -125661.41      189.98669      187.88673      1042.7722    
     97700  -126342         684.95638     -125657.05      189.9765       187.87638      1043.1226    
     97800  -126340.41      672.68299     -125667.72      189.96422      187.86435      1043.473     
     97900  -126356.65      670.53271     -125686.12      189.95323      187.85531      1043.8234    
     98000  -126362.07      665.48626     -125696.58      189.94116      187.84635      1044.1738    
     98100  -126360.4       664.67892     -125695.72      189.92583      187.83395      1044.5241    
     98200  -126358.1       670.87443     -125687.22      189.91234      187.82512      1044.8745    
     98300  -126354.19      675.64109     -125678.55      189.89656      187.81551      1045.2249    
     98400  -126351.3       673.03918     -125678.26      189.8777       187.80249      1045.5753    
     98500  -126341.64      659.17032     -125682.47      189.86251      187.7938       1045.9257    
     98600  -126356.04      670.81765     -125685.22      189.84742      187.7855       1046.2761    
     98700  -126358.87      673.1808      -125685.69      189.83188      187.77794      1046.6265    
     98800  -126357.97      672.88784     -125685.08      189.8153       187.77161      1046.9769    
     98900  -126360.88      676.72956     -125684.15      189.80063      187.76741      1047.3273    
     99000  -126361.29      673.64524     -125687.64      189.78241      187.76179      1047.6777    
     99100  -126365.54      670.62345     -125694.92      189.76142      187.75742      1048.0281    
     99200  -126368.24      669.88785     -125698.35      189.73991      187.75384      1048.3785    
     99300  -126373.62      675.61939     -125698         189.71637      187.74799      1048.7289    
     99400  -126366.03      675.25164     -125690.78      189.69519      187.74353      1049.0793    
     99500  -126351.64      667.57265     -125684.07      189.67506      187.74071      1049.4297    
     99600  -126355.99      671.90325     -125684.08      189.65331      187.73505      1049.7801    
     99700  -126362.68      672.72023     -125689.96      189.63439      187.72972      1050.1304    
     99800  -126361.88      665.76271     -125696.11      189.61419      187.7229       1050.4808    
     99900  -126375.18      679.40071     -125695.78      189.59335      187.71541      1050.8312    
    100000  -126374.43      675.68686     -125698.74      189.57663      187.70926      1051.1816    
Loop time of 26964.3 on 16 procs for 100000 steps with 17340 atoms

Performance: 0.320 ns/day, 74.901 hours/ns, 3.709 timesteps/s, 64.307 katom-step/s
46.1% CPU use with 16 MPI tasks x 1 OpenMP threads

MPI task timing breakdown:
Section |  min time  |  avg time  |  max time  |%varavg| %total
---------------------------------------------------------------
Pair    | 3003.2     | 3215.7     | 3520.3     | 287.3 | 11.93
Neigh   | 21.336     | 24.651     | 32.837     |  80.7 |  0.09
Comm    | 3296.5     | 3746.4     | 4280.4     | 449.6 | 13.89
Output  | 77.928     | 80.891     | 84.028     |  20.2 |  0.30
Modify  | 17270      | 17636      | 17974      | 170.5 | 65.41
Other   |            | 2260       |            |       |  8.38

Nlocal:        1083.75 ave        1564 max         864 min
Histogram: 7 5 0 0 0 0 0 0 0 4
Nghost:         3674.5 ave        4821 max        3113 min
Histogram: 5 5 2 0 0 0 0 0 0 4
Neighs:              0 ave           0 max           0 min
Histogram: 16 0 0 0 0 0 0 0 0 0

Total # of neighbors = 0
Ave neighs/atom = 0
Neighbor list builds = 773
Dangerous builds = 0
Total wall time: 7:29:30
