LAMMPS (2 Aug 2023 - Update 3)
OMP_NUM_THREADS environment is not set. Defaulting to 1 thread. (src/comm.cpp:98)
  using 1 OpenMP thread(s) per MPI task

# 1------general---------------
units                             metal      #单位为lammps 中的metel 类型
dimension                    3          #模拟的维度 三维
boundary                    p p p      #周期边界条件
atom_style                  atomic   #原子类型自动
atom_modify              map array sort 100 2.0
neighbor                    3.0 bin
neigh_modify            every 1 delay 0 check yes
#2 -----global variable-------定义全局变量，方便统一修改；
variable temperature equal 300
variable tstep equal 0.001
variable pressure equal 0
variable thermalstep equal 100
variable dumpstep equal 1000
variable relaxtime equal 0
variable totaltime equal 100000
variable deformrate equal 5e-3
#3 -------model------------
#box tilt large
read_data     1.lmp
Reading data file ...
  orthogonal box = (-100 -100 -2.331251) to (100 100 38.891558)
  3 by 4 by 1 MPI processor grid
  reading atoms ...
  920 atoms
  read_data CPU = 0.003 seconds
replicate 1 1 1
Replication is creating a 1x1x1 = 1 times larger system...
  orthogonal box = (-100 -100 -2.331251) to (100 100 38.891558)
  3 by 4 by 1 MPI processor grid
  920 atoms
  replicate CPU = 0.001 seconds
write_data l.data
System init for write_data ...
WARNING: Communication cutoff is 0.0. No ghost atoms will be generated. Atoms may get lost. (src/comm_brick.cpp:210)

pair_style hybrid airebo 3.0 airebo 3.0  lj/cut 10
pair_coeff * * airebo 1 CH.airebo C NULL
Reading airebo potential file CH.airebo with DATE: 2011-10-25
pair_coeff * * airebo 2 CH.airebo NULL C
Reading airebo potential file CH.airebo with DATE: 2011-10-25
pair_coeff 1 2 lj/cut 0.00456 3.431

# 5------minimize -----------
min_style      sd
minimize       1.0e-4 1.0e-6 100 1000
Neighbor list info ...
  update: every = 1 steps, delay = 0 steps, check = yes
  max neighbors/atom: 2000, page size: 100000
  master list distance cutoff = 13.2
  ghost atom cutoff = 13.2
  binsize = 6.6, bins = 31 31 7
  5 neighbor lists, perpetual/occasional/extra = 5 0 0
  (1) pair airebo, perpetual, skip from (4)
      attributes: full, newton on, ghost
      pair build: skip/ghost
      stencil: none
      bin: none
  (2) pair airebo, perpetual, skip from (4)
      attributes: full, newton on, ghost
      pair build: skip/ghost
      stencil: none
      bin: none
  (3) pair lj/cut, perpetual, skip from (5)
      attributes: half, newton on, cut 13
      pair build: skip
      stencil: none
      bin: none
  (4) neighbor class addition, perpetual
      attributes: full, newton on, ghost
      pair build: full/bin/ghost
      stencil: full/ghost/bin/3d
      bin: standard
  (5) neighbor class addition, perpetual
      attributes: half, newton on, cut 13
      pair build: half/bin/atomonly/newton
      stencil: half/bin/3d
      bin: standard
Per MPI rank memory allocation (min/avg/max) = 8.247 | 8.504 | 9.978 Mbytes
   Step          Temp          E_pair         E_mol          TotEng         Press     
         0   0             -6670.3905      0             -6670.3905      322.36972    
         4   0             -6687.9609      0             -6687.9609      67.774962    
Loop time of 0.0478428 on 12 procs for 4 steps with 920 atoms

98.9% CPU use with 12 MPI tasks x 1 OpenMP threads

Minimization stats:
  Stopping criterion = energy tolerance
  Energy initial, next-to-last, final = 
      -6670.3904889944   -6687.5564429674  -6687.96088731876
  Force two-norm initial, final = 43.630917 6.643287
  Force max component initial, final = 3.4211508 0.48894053
  Final line search alpha, max atom move = 0.14095332 0.068917792
  Iterations, force evaluations = 4 8

MPI task timing breakdown:
Section |  min time  |  avg time  |  max time  |%varavg| %total
---------------------------------------------------------------
Pair    | 3.038e-06  | 0.0077808  | 0.047327   |  19.7 | 16.26
Neigh   | 0          | 0          | 0          |   0.0 |  0.00
Comm    | 1.969e-06  | 0.00015557 | 0.0015706  |   0.0 |  0.33
Output  | 0          | 0          | 0          |   0.0 |  0.00
Modify  | 0          | 0          | 0          |   0.0 |  0.00
Other   |            | 0.03991    |            |       | 83.41

Nlocal:        76.6667 ave         477 max           0 min
Histogram: 10 0 0 0 0 0 0 0 0 2
Nghost:        172.333 ave        1051 max           0 min
Histogram: 10 0 0 0 0 0 0 0 0 2
Neighs:              0 ave           0 max           0 min
Histogram: 12 0 0 0 0 0 0 0 0 0

Total # of neighbors = 0
Ave neighs/atom = 0
Neighbor list builds = 0
Dangerous builds = 0
#6----define computes------
variable nums equal count(all) #计算原子数目
variable toval equal 13.369*13.369*lz #计算系统总体积，单层石墨烯厚度为0.335nm
variable vol equal ${toval} #体系的初始体积
variable vol equal 7367.75928944225 
variable vatom equal v_vol/v_nums #单个原子体积
compute 1 all stress/atom NULL #计算体系中单原子应力
compute xalls all reduce sum c_1[1]
variable xstress equal (c_xalls)/(v_toval*10000)
compute yalls all reduce sum c_1[2]
variable ystress equal (c_yalls)/(v_toval*10000)
compute zalls all reduce sum c_1[3]
variable zstress equal (c_zalls)/(v_toval*10000)
#7---------relaxation-------------------------
timestep ${tstep}
timestep 0.001
#------------5 温度初始化------------------------------
velocity all create 300 4928459 dist gaussian units box
#------------------------------------------------------
dump   1 all atom 100 all-cy.lammpstrj
#fix    1 all npt temp 300 300  0.1 aniso 0 0  drag 1  #三个方向独立控压
fix  s all npt temp ${temperature} ${temperature} 0.1 y ${pressure} ${pressure} 10 x ${pressure} ${pressure} 10
fix  s all npt temp 300 ${temperature} 0.1 y ${pressure} ${pressure} 10 x ${pressure} ${pressure} 10
fix  s all npt temp 300 300 0.1 y ${pressure} ${pressure} 10 x ${pressure} ${pressure} 10
fix  s all npt temp 300 300 0.1 y 0 ${pressure} 10 x ${pressure} ${pressure} 10
fix  s all npt temp 300 300 0.1 y 0 0 10 x ${pressure} ${pressure} 10
fix  s all npt temp 300 300 0.1 y 0 0 10 x 0 ${pressure} 10
fix  s all npt temp 300 300 0.1 y 0 0 10 x 0 0 10
thermo                1000
thermo_modify       lost ignore
compute  2 all pe/atom
compute  pe all reduce sum c_2
variable PE equal "c_pe"
fix    pe all print 100 "${PE} " file PE.txt screen no
thermo  ${thermalstep}
thermo  100
#thermo_style  custom step pe ke etotal lx ly lz
run   ${relaxtime}
run   0
Per MPI rank memory allocation (min/avg/max) = 8.872 | 9.129 | 10.6 Mbytes
   Step          Temp          E_pair         E_mol          TotEng         Press          Volume    
         4   300           -6687.9609      0             -6652.3239      90.859592      1648912.4    
Loop time of 3.51837e-05 on 12 procs for 0 steps with 920 atoms

98.1% CPU use with 12 MPI tasks x 1 OpenMP threads

MPI task timing breakdown:
Section |  min time  |  avg time  |  max time  |%varavg| %total
---------------------------------------------------------------
Pair    | 0          | 0          | 0          |   0.0 |  0.00
Neigh   | 0          | 0          | 0          |   0.0 |  0.00
Comm    | 0          | 0          | 0          |   0.0 |  0.00
Output  | 0          | 0          | 0          |   0.0 |  0.00
Modify  | 0          | 0          | 0          |   0.0 |  0.00
Other   |            | 3.518e-05  |            |       |100.00

Nlocal:        76.6667 ave         460 max           0 min
Histogram: 10 0 0 0 0 0 0 0 0 2
Nghost:        172.333 ave        1034 max           0 min
Histogram: 10 0 0 0 0 0 0 0 0 2
Neighs:              0 ave           0 max           0 min
Histogram: 12 0 0 0 0 0 0 0 0 0

Total # of neighbors = 0
Ave neighs/atom = 0
Neighbor list builds = 0
Dangerous builds = 0
#8 -------tension-----------------------------
unfix s
undump  1
unfix  pe
reset_timestep 0
fix avestress all ave/atom 1 ${dumpstep} ${dumpstep} c_1[1] c_1[2] c_1[3] c_1[4] c_1[5] c_1[6]
fix avestress all ave/atom 1 1000 ${dumpstep} c_1[1] c_1[2] c_1[3] c_1[4] c_1[5] c_1[6]
fix avestress all ave/atom 1 1000 1000 c_1[1] c_1[2] c_1[3] c_1[4] c_1[5] c_1[6]

#-----calculation of strain and Cumulative compression--------
variable                tmp equal "lz"
variable                L0 equal ${tmp}
variable                L0 equal 41.222809
variable                strain equal "(lz - v_L0)/v_L0"
variable                Cumulativels equal "(lz - v_L0)/10"
fix Step all print 100 "${strain} ${Cumulativels} ${zstress}" file grapoten.txt screen no

dump 2 all custom ${dumpstep} tension.xyz type x y z f_avestress[1] f_avestress[2] f_avestress[3] f_avestress[4] f_avestress[5] f_avestress[6]
dump 2 all custom 1000 tension.xyz type x y z f_avestress[1] f_avestress[2] f_avestress[3] f_avestress[4] f_avestress[5] f_avestress[6]

fix  1 all npt temp ${temperature} ${temperature} 0.1 y ${pressure} ${pressure} 10 x ${pressure} ${pressure} 10
fix  1 all npt temp 300 ${temperature} 0.1 y ${pressure} ${pressure} 10 x ${pressure} ${pressure} 10
fix  1 all npt temp 300 300 0.1 y ${pressure} ${pressure} 10 x ${pressure} ${pressure} 10
fix  1 all npt temp 300 300 0.1 y 0 ${pressure} 10 x ${pressure} ${pressure} 10
fix  1 all npt temp 300 300 0.1 y 0 0 10 x ${pressure} ${pressure} 10
fix  1 all npt temp 300 300 0.1 y 0 0 10 x 0 ${pressure} 10
fix  1 all npt temp 300 300 0.1 y 0 0 10 x 0 0 10

thermo_style custom step pe ke etotal lx ly lz
WARNING: New thermo_style command, previous thermo_modify settings will be lost (src/output.cpp:903)
fix   2 all deform 1 z erate ${deformrate} remap x units box
fix   2 all deform 1 z erate 0.005 remap x units box
fix   3 all ave/time 2 500 1000 v_xstress v_ystress v_zstress file pressure.out
run   ${totaltime}
run   100000
WARNING: Dump 2 includes no atom IDs and is not sorted by ID. This may complicate post-processing tasks or visualization (src/dump.cpp:221)
Per MPI rank memory allocation (min/avg/max) = 10.37 | 10.63 | 12.1 Mbytes
   Step         PotEng         KinEng         TotEng           Lx             Ly             Lz      
         0  -6687.9609      35.637022     -6652.3239      200            200            41.222809    
       100  -6666.8874      18.428997     -6648.4584      200.00501      200.00784      41.24342     
       200  -6667.8005      25.089887     -6642.7106      200.00522      200.00662      41.264032    
       300  -6663.7285      27.858102     -6635.8704      200.0131       200.0061       41.284643    
       400  -6659.1963      30.562508     -6628.6338      200.0222       200.00173      41.305255    
       500  -6657.7465      35.881433     -6621.8651      200.02967      199.99393      41.325866    
       600  -6654.8311      38.290025     -6616.5411      200.04143      199.99435      41.346477    
       700  -6654.6742      40.325755     -6614.3484      200.03893      199.98801      41.367089    
       800  -6653.4005      37.331811     -6616.0687      200.04464      199.9962       41.3877      
       900  -6656.6783      37.157708     -6619.5206      200.03826      199.99458      41.408312    
      1000  -6654.5208      33.244606     -6621.2762      200.04319      199.99832      41.428923    
      1100  -6654.5502      34.362581     -6620.1876      200.04586      199.99256      41.449534    
      1200  -6653.5039      36.125322     -6617.3785      200.05414      199.98865      41.470146    
      1300  -6651.6296      35.949996     -6615.6796      200.05926      199.98272      41.490757    
      1400  -6650.975       34.702635     -6616.2723      200.0638       199.97994      41.511369    
      1500  -6653.153       34.93292      -6618.2201      200.06295      199.97865      41.53198     
      1600  -6652.8323      33.252351     -6619.58        200.06286      199.98305      41.552591    
      1700  -6654.0733      35.061436     -6619.0119      200.05824      199.98042      41.573203    
      1800  -6651.5426      34.758078     -6616.7845      200.06389      199.98311      41.593814    
      1900  -6652.2855      37.096212     -6615.1893      200.06222      199.97424      41.614426    
      2000  -6651.0369      35.674469     -6615.3625      200.07164      199.97367      41.635037    
      2100  -6651.9057      35.125049     -6616.7807      200.06989      199.96431      41.655648    
      2200  -6653.9405      36.057254     -6617.8832      200.07451      199.96516      41.67626     
      2300  -6653.1529      35.761516     -6617.3914      200.07004      199.96142      41.696871    
      2400  -6653.0877      37.489659     -6615.5981      200.06962      199.96188      41.717483    
      2500  -6650.6462      36.669246     -6613.977       200.06937      199.96074      41.738094    
      2600  -6650.3832      36.720904     -6613.6623      200.06773      199.95458      41.758706    
      2700  -6651.0939      36.195359     -6614.8985      200.07265      199.95174      41.779317    
      2800  -6650.9781      34.873512     -6616.1046      200.0723       199.94241      41.799928    
      2900  -6650.508       34.555881     -6615.9521      200.07567      199.93912      41.82054     
      3000  -6649.647       35.333089     -6614.3139      200.07339      199.93495      41.841151    
      3100  -6648.8098      36.139932     -6612.6699      200.07089      199.93229      41.861763    
      3200  -6647.0491      34.75096      -6612.2982      200.0687       199.93112      41.882374    
      3300  -6649.0557      35.256893     -6613.7988      200.06597      199.92622      41.902985    
      3400  -6650.2605      35.265958     -6614.9945      200.06686      199.91903      41.923597    
      3500  -6648.4021      34.344975     -6614.0571      200.06964      199.91196      41.944208    
      3600  -6648.3481      35.679679     -6612.6684      200.06927      199.90192      41.96482     
      3700  -6647.3074      35.447674     -6611.8597      200.07044      199.89828      41.985431    
      3800  -6647.7648      36.329176     -6611.4356      200.06433      199.89179      42.006042    
      3900  -6648.566       37.064601     -6611.5014      200.0615       199.89138      42.026654    
      4000  -6647.696       34.615141     -6613.0809      200.05548      199.88614      42.047265    
      4100  -6648.309       34.949936     -6613.3591      200.05359      199.88001      42.067877    
      4200  -6646.5586      35.410323     -6611.1483      200.05419      199.87202      42.088488    
      4300  -6645.5029      36.155384     -6609.3475      200.05383      199.86177      42.109099    
      4400  -6644.9763      35.977485     -6608.9988      200.05318      199.85313      42.129711    
      4500  -6645.4482      35.902133     -6609.5461      200.05071      199.84639      42.150322    
      4600  -6646.0849      35.295268     -6610.7896      200.04462      199.84071      42.170934    
      4700  -6646.9008      34.692024     -6612.2088      200.0377       199.83638      42.191545    
      4800  -6645.1428      34.434746     -6610.7081      200.03304      199.83097      42.212156    
      4900  -6644.8281      37.14363      -6607.6845      200.02888      199.82099      42.232768    
      5000  -6642.6349      36.133899     -6606.501       200.02983      199.81079      42.253379    
      5100  -6643.2939      36.979726     -6606.3142      200.02668      199.79701      42.273991    
      5200  -6641.7657      34.561783     -6607.2039      200.02475      199.78996      42.294602    
      5300  -6642.2095      34.114748     -6608.0947      200.01605      199.78097      42.315213    
      5400  -6639.9278      32.91057      -6607.0172      200.0095       199.77651      42.335825    
      5500  -6639.0693      35.425361     -6603.644       200.00113      199.76727      42.356436    
      5600  -6638.9524      35.618205     -6603.3342      199.99712      199.76019      42.377048    
      5700  -6639.575       35.175721     -6604.3992      199.99037      199.74595      42.397659    
      5800  -6640.0897      34.954077     -6605.1356      199.98992      199.73545      42.41827     
      5900  -6639.216       34.737863     -6604.4781      199.98295      199.72051      42.438882    
      6000  -6637.3267      35.645723     -6601.681       199.97851      199.71233      42.459493    
      6100  -6636.7923      37.184194     -6599.6082      199.96845      199.70217      42.480105    
      6200  -6637.2869      36.91775      -6600.3691      199.95953      199.69368      42.500716    
      6300  -6638.1048      36.606802     -6601.498       199.95146      199.68284      42.521327    
      6400  -6637.1431      35.669679     -6601.4734      199.94533      199.66894      42.541939    
      6500  -6635.6086      35.142315     -6600.4663      199.94064      199.65437      42.56255     
      6600  -6634.1787      36.587696     -6597.591       199.93505      199.63956      42.583162    
      6700  -6634.2453      38.037743     -6596.2076      199.92673      199.62575      42.603773    
      6800  -6635.0948      37.759938     -6597.3348      199.91674      199.61411      42.624385    
      6900  -6633.1397      35.35443      -6597.7853      199.90603      199.60358      42.644996    
      7000  -6633.8486      36.13534      -6597.7133      199.89418      199.58939      42.665607    
      7100  -6632.2741      34.882474     -6597.3916      199.88616      199.5762       42.686219    
      7200  -6632.9216      36.410281     -6596.5114      199.87835      199.55831      42.70683     
      7300  -6629.9762      35.360924     -6594.6153      199.87203      199.53963      42.727442    
      7400  -6630.4207      37.161793     -6593.2589      199.86401      199.52242      42.748053    
      7500  -6630.7868      36.613114     -6594.1737      199.85157      199.50768      42.768664    
      7600  -6631.0859      35.690326     -6595.3956      199.83656      199.4945       42.789276    
      7700  -6628.7263      34.074223     -6594.6521      199.82242      199.4824       42.809887    
      7800  -6628.9708      35.897386     -6593.0734      199.80889      199.46423      42.830499    
      7900  -6627.9564      36.585604     -6591.3708      199.80086      199.44571      42.85111     
      8000  -6627.0328      36.926563     -6590.1063      199.79124      199.42318      42.871721    
      8100  -6626.2856      37.028576     -6589.257       199.7801       199.40307      42.892333    
      8200  -6625.0335      35.116896     -6589.9166      199.76646      199.38616      42.912944    
      8300  -6626.4549      35.739248     -6590.7156      199.74921      199.36828      42.933556    
      8400  -6625.7007      35.36301      -6590.3377      199.73388      199.35048      42.954167    
      8500  -6623.3053      35.057111     -6588.2482      199.71847      199.3312       42.974778    
      8600  -6622.216       36.443684     -6585.7724      199.70421      199.3098       42.99539     
      8700  -6621.7942      36.322204     -6585.472       199.68949      199.2869       43.016001    
      8800  -6621.9403      36.012172     -6585.9282      199.67706      199.26415      43.036613    
      8900  -6620.0793      34.472797     -6585.6065      199.65986      199.2393       43.057224    
      9000  -6621.9216      36.912575     -6585.009       199.64361      199.21915      43.077835    
      9100  -6620.2264      35.788873     -6584.4375      199.62304      199.19662      43.098447    
      9200  -6619.7282      35.377826     -6584.3503      199.60384      199.17543      43.119058    
      9300  -6620.76        36.222705     -6584.5373      199.5841       199.14999      43.13967     
      9400  -6619.5964      35.917626     -6583.6788      199.56851      199.1251       43.160281    
      9500  -6615.8171      34.785299     -6581.0318      199.54882      199.09464      43.180892    
      9600  -6614.6459      35.425824     -6579.2201      199.53372      199.06994      43.201504    
      9700  -6614.6076      35.588015     -6579.0195      199.5091       199.04107      43.222115    
      9800  -6616.3564      36.186402     -6580.17        199.48752      199.01886      43.242727    
      9900  -6615.4693      35.399985     -6580.0693      199.46041      198.99029      43.263338    
     10000  -6614.7713      35.978954     -6578.7923      199.4418       198.96392      43.283949    
     10100  -6611.9401      35.150927     -6576.7892      199.41871      198.92818      43.304561    
     10200  -6611.0573      36.176977     -6574.8803      199.40272      198.89742      43.325172    
     10300  -6611.0312      36.873591     -6574.1576      199.37663      198.86102      43.345784    
     10400  -6610.0241      34.152976     -6575.8711      199.3533       198.83327      43.366395    
     10500  -6611.6049      35.798845     -6575.8061      199.32288      198.80116      43.387006    
     10600  -6609.4875      35.69841      -6573.7891      199.29593      198.77185      43.407618    
     10700  -6607.2974      35.78688      -6571.5105      199.26672      198.73686      43.428229    
     10800  -6606.4871      35.90001      -6570.5871      199.24229      198.70226      43.448841    
     10900  -6606.2767      35.932186     -6570.3445      199.21418      198.66136      43.469452    
     11000  -6604.7217      34.574615     -6570.147       199.18963      198.62438      43.490063    
     11100  -6605.621       35.353491     -6570.2675      199.15804      198.58471      43.510675    
     11200  -6605.0006      34.026126     -6570.9745      199.1263       198.54968      43.531286    
     11300  -6604.4895      35.091846     -6569.3977      199.09043      198.51144      43.551898    
     11400  -6602.4483      36.201985     -6566.2463      199.05953      198.47397      43.572509    
     11500  -6600.9193      36.137046     -6564.7822      199.02589      198.42855      43.593121    
     11600  -6600.5694      36.345165     -6564.2242      198.99744      198.38463      43.613732    
     11700  -6600.0523      35.144995     -6564.9073      198.96379      198.3369       43.634343    
     11800  -6600.0932      34.413028     -6565.6802      198.93033      198.29282      43.654955    
     11900  -6598.255       34.403004     -6563.852       198.88995      198.24837      43.675566    
     12000  -6596.3277      35.722804     -6560.6049      198.85174      198.2069       43.696178    
     12100  -6595.1932      35.622752     -6559.5704      198.81174      198.15798      43.716789    
     12200  -6595.2693      36.076703     -6559.1926      198.77576      198.10841      43.7374      
     12300  -6594.1751      34.910407     -6559.2646      198.73942      198.05459      43.758012    
     12400  -6594.4001      35.282979     -6559.1172      198.70092      198.00066      43.778623    
     12500  -6591.4972      34.205654     -6557.2915      198.65906      197.94928      43.799235    
     12600  -6590.9892      36.77869      -6554.2105      198.616        197.8985       43.819846    
     12700  -6589.4027      36.45834      -6552.9443      198.57066      197.84465      43.840457    
     12800  -6590.5232      37.226666     -6553.2965      198.52629      197.78983      43.861069    
     12900  -6588.9939      34.772385     -6554.2215      198.48214      197.73155      43.88168     
     13000  -6587.5055      34.279345     -6553.2262      198.43798      197.67196      43.902292    
     13100  -6587.2594      35.817836     -6551.4416      198.39173      197.61133      43.922903    
     13200  -6585.4947      36.129641     -6549.365       198.3455       197.55042      43.943514    
     13300  -6584.1537      36.395933     -6547.7578      198.2969       197.48802      43.964126    
     13400  -6582.0329      35.232667     -6546.8003      198.24548      197.42689      43.984737    
     13500  -6582.2844      34.879265     -6547.4051      198.19415      197.36403      44.005349    
     13600  -6581.9785      34.362404     -6547.6161      198.14421      197.29597      44.02596     
     13700  -6581.4211      35.250133     -6546.1709      198.09462      197.22665      44.046571    
     13800  -6578.3953      35.531389     -6542.8639      198.04403      197.15663      44.067183    
     13900  -6578.2005      36.814756     -6541.3857      197.98844      197.08874      44.087794    
     14000  -6576.4643      35.068804     -6541.3955      197.92898      197.02095      44.108406    
     14100  -6576.9022      35.797        -6541.1052      197.87083      196.95342      44.129017    
     14200  -6576.748       36.345902     -6540.4021      197.81149      196.88103      44.149628    
     14300  -6574.0744      35.021171     -6539.0532      197.75641      196.80554      44.17024     
     14400  -6571.6744      36.623772     -6535.0506      197.70115      196.72552      44.190851    
     14500  -6571.2546      37.532462     -6533.7222      197.6429       196.64875      44.211463    
     14600  -6570.4529      35.61351      -6534.8394      197.57858      196.57267      44.232074    
     14700  -6571.3857      36.320575     -6535.0651      197.51227      196.49808      44.252685    
     14800  -6569.5215      35.246863     -6534.2746      197.4465       196.42251      44.273297    
     14900  -6568.2914      35.71401      -6532.5774      197.38083      196.34195      44.293908    
     15000  -6566.7722      37.483833     -6529.2883      197.31847      196.25867      44.31452     
     15100  -6564.2804      36.455162     -6527.8253      197.25468      196.1724       44.335131    
     15200  -6564.9567      35.937779     -6529.0189      197.18902      196.08945      44.355742    
     15300  -6564.0278      35.171016     -6528.8568      197.11823      196.004        44.376354    
     15400  -6562.8725      35.197064     -6527.6755      197.04826      195.92288      44.396965    
     15500  -6562.3491      36.378241     -6525.9709      196.97364      195.83743      44.417577    
     15600  -6560.3191      36.426973     -6523.8921      196.90422      195.75206      44.438188    
     15700  -6558.8136      36.721555     -6522.0921      196.83346      195.65961      44.4588      
     15800  -6557.3491      34.840335     -6522.5088      196.76645      195.56782      44.479411    
     15900  -6557.899       34.765445     -6523.1335      196.69407      195.47372      44.500022    
     16000  -6557.3991      35.576038     -6521.823       196.61917      195.38545      44.520634    
     16100  -6555.7398      36.562575     -6519.1772      196.53987      195.2954       44.541245    
     16200  -6552.7661      36.155239     -6516.6109      196.46394      195.20653      44.561857    
     16300  -6552.2289      38.471399     -6513.7575      196.38615      195.11022      44.582468    
     16400  -6548.6271      37.263977     -6511.3632      196.31427      195.01532      44.603079    
     16500  -6547.9995      35.180415     -6512.8191      196.23748      194.91259      44.623691    
     16600  -6548.977       35.653506     -6513.3235      196.16445      194.81729      44.644302    
     16700  -6548.2943      35.163241     -6513.1311      196.08004      194.71696      44.664914    
     16800  -6546.6077      34.371756     -6512.2359      196.00295      194.6256       44.685525    
     16900  -6544.6687      34.950914     -6509.7178      195.91698      194.52388      44.706136    
     17000  -6543.2622      36.750233     -6506.512       195.84121      194.42825      44.726748    
     17100  -6543.0972      37.260156     -6505.8371      195.75758      194.32121      44.747359    
     17200  -6541.2938      35.336887     -6505.957       195.68317      194.22233      44.767971    
     17300  -6541.6723      36.365659     -6505.3067      195.5975       194.11425      44.788582    
     17400  -6539.1376      35.066555     -6504.0711      195.51925      194.01722      44.809193    
     17500  -6537.9416      35.29284      -6502.6488      195.42894      193.91287      44.829805    
     17600  -6537.5078      36.510824     -6500.997       195.34616      193.8171       44.850416    
     17700  -6535.6561      37.61754      -6498.0385      195.25716      193.71099      44.871028    
     17800  -6532.8128      36.417329     -6496.3955      195.17902      193.60791      44.891639    
     17900  -6533.4463      36.086268     -6497.3601      195.09517      193.49697      44.91225     
     18000  -6532.8434      35.538494     -6497.3049      195.01564      193.39045      44.932862    
     18100  -6529.3388      33.264737     -6496.0741      194.92716      193.28348      44.953473    
     18200  -6529.4897      35.155468     -6494.3342      194.84172      193.18305      44.974085    
     18300  -6527.9971      37.237362     -6490.7597      194.75105      193.07747      44.994696    
     18400  -6526.3506      37.313909     -6489.0367      194.66593      192.97445      45.015307    
     18500  -6525.9532      36.192784     -6489.7604      194.58058      192.86438      45.035919    
     18600  -6524.7403      35.415678     -6489.3246      194.49934      192.75549      45.05653     
     18700  -6523.6163      35.663253     -6487.953       194.4128       192.64415      45.077142    
     18800  -6522.365       35.52339      -6486.8416      194.32954      192.53917      45.097753    
     18900  -6520.6432      35.352055     -6485.2912      194.23954      192.43017      45.118364    
     19000  -6519.5637      36.289765     -6483.2739      194.15313      192.32831      45.138976    
     19100  -6518.0338      36.645375     -6481.3884      194.06088      192.21988      45.159587    
     19200  -6516.7344      35.875577     -6480.8588      193.97795      192.11512      45.180199    
     19300  -6516.1465      34.636419     -6481.5101      193.89136      192.00263      45.20081     
     19400  -6514.9267      34.354339     -6480.5724      193.80862      191.89346      45.221421    
     19500  -6514.2824      36.385799     -6477.8966      193.72286      191.78306      45.242033    
     19600  -6510.7575      36.398599     -6474.3589      193.63619      191.67959      45.262644    
     19700  -6509.4548      36.267836     -6473.187       193.54473      191.5731       45.283256    
     19800  -6509.4123      36.271545     -6473.1407      193.45864      191.46867      45.303867    
     19900  -6507.9903      34.80958      -6473.1807      193.37181      191.36058      45.324478    
     20000  -6507.7376      35.827175     -6471.9104      193.28807      191.25188      45.34509     
     20100  -6503.895       35.198039     -6468.6969      193.204        191.14323      45.365701    
     20200  -6501.5283      36.036412     -6465.4919      193.11771      191.03715      45.386313    
     20300  -6501.3578      36.307693     -6465.0501      193.03167      190.93374      45.406924    
     20400  -6501.1545      36.123607     -6465.0309      192.94399      190.82732      45.427536    
     20500  -6499.7816      35.373825     -6464.4078      192.859        190.72355      45.448147    
     20600  -6498.4357      35.333224     -6463.1025      192.77348      190.61651      45.468758    
     20700  -6496.8838      35.863827     -6461.0199      192.69197      190.51226      45.48937     
     20800  -6493.9343      36.816639     -6457.1177      192.60496      190.40504      45.509981    
     20900  -6493.0113      36.918781     -6456.0925      192.52502      190.30279      45.530593    
     21000  -6493.1543      36.379481     -6456.7749      192.43904      190.19568      45.551204    
     21100  -6491.7964      35.644851     -6456.1516      192.35682      190.09658      45.571815    
     21200  -6490.286       35.274482     -6455.0115      192.26987      189.99138      45.592427    
     21300  -6488.8468      35.161669     -6453.6851      192.19029      189.89193      45.613038    
     21400  -6486.3261      35.094359     -6451.2318      192.10603      189.78555      45.63365     
     21500  -6484.293       35.934204     -6448.3588      192.02916      189.68561      45.654261    
     21600  -6484.5673      37.338892     -6447.2284      191.94331      189.58186      45.674872    
     21700  -6482.9455      34.790906     -6448.1546      191.86382      189.488        45.695484    
     21800  -6482.965       35.584383     -6447.3806      191.77561      189.38662      45.716095    
     21900  -6481.2756      35.858426     -6445.4172      191.6977       189.2922       45.736707    
     22000  -6479.503       36.572557     -6442.9304      191.61644      189.18819      45.757318    
     22100  -6476.175       35.421953     -6440.753       191.54291      189.09136      45.777929    
     22200  -6473.7143      36.29139      -6437.4229      191.46037      188.99019      45.798541    
     22300  -6472.3119      37.24632      -6435.0655      191.38445      188.89804      45.819152    
     22400  -6471.8476      35.830034     -6436.0176      191.30105      188.79951      45.839764    
     22500  -6470.7799      34.74834      -6436.0316      191.22455      188.70926      45.860375    
     22600  -6471.1686      35.961829     -6435.2067      191.1419       188.61163      45.880986    
     22700  -6468.2007      34.541074     -6433.6596      191.06871      188.52088      45.901598    
     22800  -6466.3044      36.035572     -6430.2689      190.99018      188.42227      45.922209    
     22900  -6463.7251      36.125927     -6427.5992      190.92054      188.33001      45.942821    
     23000  -6463.2561      35.878342     -6427.3778      190.84116      188.23279      45.963432    
     23100  -6461.6902      34.252025     -6427.4381      190.76811      188.14832      45.984043    
     23200  -6461.997       35.978097     -6426.0189      190.68591      188.05521      46.004655    
     23300  -6461.5672      37.202521     -6424.3647      190.61378      187.9711       46.025266    
     23400  -6459.4564      37.000987     -6422.4555      190.53552      187.87732      46.045878    
     23500  -6456.3455      36.528009     -6419.8175      190.46889      187.79185      46.066489    
     23600  -6453.8123      36.323625     -6417.4887      190.39219      187.69649      46.0871      
     23700  -6453.21        35.489115     -6417.7209      190.32645      187.61324      46.107712    
     23800  -6452.6466      34.58771      -6418.0589      190.25012      187.51953      46.128323    
     23900  -6450.7927      34.453835     -6416.3389      190.18263      187.44083      46.148935    
     24000  -6448.9435      35.280305     -6413.6631      190.10233      187.35288      46.169546    
     24100  -6447.9892      36.617134     -6411.3721      190.03502      187.27547      46.190157    
     24200  -6445.1636      36.322268     -6408.8414      189.95998      187.18591      46.210769    
     24300  -6442.2857      36.294725     -6405.991       189.89923      187.10431      46.23138     
     24400  -6443.081       37.077285     -6406.0037      189.82742      187.01212      46.251992    
     24500  -6441.9162      35.46712      -6406.449       189.76417      186.93558      46.272603    
     24600  -6440.6928      35.270312     -6405.4225      189.6887       186.85025      46.293215    
     24700  -6438.7437      35.306909     -6403.4368      189.62473      186.77564      46.313826    
     24800  -6436.5752      36.741843     -6399.8334      189.55157      186.69163      46.334437    
     24900  -6434.1714      36.954064     -6397.2174      189.49131      186.61604      46.355049    
     25000  -6434.1041      37.251636     -6396.8525      189.42187      186.52922      46.37566     
     25100  -6431.6534      35.450777     -6396.2026      189.36378      186.45396      46.396272    
     25200  -6429.6936      34.68698      -6395.0066      189.29298      186.37018      46.416883    
     25300  -6429.1525      35.646611     -6393.5059      189.23301      186.29897      46.437494    
     25400  -6427.3806      35.538326     -6391.8423      189.16167      186.21869      46.458106    
     25500  -6426.2861      36.125422     -6390.1606      189.1022       186.14861      46.478717    
     25600  -6422.6912      34.567234     -6388.1239      189.03579      186.06639      46.499329    
     25700  -6422.539       36.061445     -6386.4775      188.9812       185.99222      46.51994     
     25800  -6421.3822      35.556868     -6385.8254      188.91796      185.91064      46.540551    
     25900  -6420.8978      35.234658     -6385.6631      188.85916      185.84129      46.561163    
     26000  -6418.5524      34.668301     -6383.8841      188.79101      185.7677       46.581774    
     26100  -6416.4417      36.68568      -6379.756       188.72995      185.70145      46.602386    
     26200  -6413.9564      36.669687     -6377.2867      188.66612      185.62738      46.622997    
     26300  -6413.6242      36.853771     -6376.7705      188.6128       185.55404      46.643608    
     26400  -6411.3691      34.77295      -6376.5962      188.55659      185.47483      46.66422     
     26500  -6411.3395      35.903957     -6375.4355      188.50104      185.40457      46.684831    
     26600  -6409.0171      35.673386     -6373.3437      188.43866      185.33447      46.705443    
     26700  -6407.7025      36.41317      -6371.2893      188.37828      185.2702       46.726054    
     26800  -6404.834       35.459672     -6369.3744      188.31584      185.20339      46.746665    
     26900  -6403.8423      36.703845     -6367.1385      188.25962      185.1352       46.767277    
     27000  -6399.5446      35.442384     -6364.1022      188.20663      185.06246      46.787888    
     27100  -6398.3574      36.806023     -6361.5514      188.1556       184.98989      46.8085      
     27200  -6397.569       35.475987     -6362.093       188.10128      184.92021      46.829111    
     27300  -6396.5107      34.719616     -6361.7911      188.04388      184.8556       46.849722    
     27400  -6396.9135      36.637562     -6360.276       187.98337      184.79436      46.870334    
     27500  -6393.6408      35.502007     -6358.1388      187.92435      184.73135      46.890945    
     27600  -6390.8783      36.40208      -6354.4762      187.87101      184.66741      46.911557    
     27700  -6388.2209      36.40153      -6351.8194      187.81954      184.59716      46.932168    
     27800  -6388.1647      36.186936     -6351.9778      187.7725       184.52881      46.952779    
     27900  -6386.8845      35.239052     -6351.6455      187.7198       184.45958      46.973391    
     28000  -6385.4411      35.37338      -6350.0677      187.66703      184.40107      46.994002    
     28100  -6383.9271      35.969265     -6347.9578      187.60623      184.33962      47.014614    
     28200  -6381.3932      35.873272     -6345.5199      187.55335      184.28387      47.035225    
     28300  -6380.1453      36.748245     -6343.397       187.49862      184.21628      47.055836    
     28400  -6378.4719      35.882175     -6342.5897      187.45652      184.15371      47.076448    
     28500  -6379.3316      36.582087     -6342.7495      187.40443      184.08294      47.097059    
     28600  -6376.0989      34.532976     -6341.5659      187.36037      184.02464      47.117671    
     28700  -6374.0985      36.092418     -6338.0061      187.30185      183.96111      47.138282    
     28800  -6371.9921      36.966355     -6335.0258      187.25155      183.91177      47.158893    
     28900  -6369.4868      35.728889     -6333.7579      187.19293      183.84893      47.179505    
     29000  -6369.9564      36.796657     -6333.1598      187.15114      183.7917       47.200116    
     29100  -6367.2943      34.860605     -6332.4337      187.10217      183.72265      47.220728    
     29200  -6365.3353      35.09173      -6330.2435      187.06209      183.66295      47.241339    
     29300  -6363.0013      36.858096     -6326.1432      187.01047      183.60004      47.261951    
     29400  -6359.6522      35.865673     -6323.7865      186.96077      183.54851      47.282562    
     29500  -6360.0069      36.605213     -6323.4017      186.90597      183.49258      47.303173    
     29600  -6357.8229      34.417853     -6323.405       186.85816      183.43727      47.323785    
     29700  -6356.4236      34.579781     -6321.8439      186.81221      183.37616      47.344396    
     29800  -6354.9719      35.564697     -6319.4072      186.76916      183.31466      47.365008    
     29900  -6353.2378      36.084983     -6317.1528      186.72616      183.25543      47.385619    
     30000  -6351.0592      36.197966     -6314.8612      186.67686      183.19863      47.40623     
     30100  -6348.4092      35.33785      -6313.0713      186.62781      183.14849      47.426842    
     30200  -6348.0999      35.790105     -6312.3098      186.57473      183.09353      47.447453    
     30300  -6347.1869      35.36382      -6311.8231      186.53053      183.04187      47.468065    
     30400  -6345.8458      35.761394     -6310.0844      186.48443      182.98029      47.488676    
     30500  -6342.0758      35.434273     -6306.6415      186.4471       182.92363      47.509287    
     30600  -6340.2977      36.76462      -6303.5331      186.4002       182.86282      47.529899    
     30700  -6337.8494      35.702248     -6302.1472      186.35566      182.81489      47.55051     
     30800  -6337.2032      35.550146     -6301.6531      186.30006      182.76213      47.571122    
     30900  -6335.2021      34.896039     -6300.3061      186.25625      182.71539      47.591733    
     31000  -6335.3627      36.787017     -6298.5757      186.20869      182.6547       47.612344    
     31100  -6332.1863      35.599813     -6296.5865      186.17356      182.60169      47.632956    
     31200  -6330.4048      36.248274     -6294.1565      186.12693      182.53933      47.653567    
     31300  -6325.983       34.719901     -6291.2631      186.08786      182.49249      47.674179    
     31400  -6326.4734      37.560177     -6288.9132      186.03475      182.43714      47.69479     
     31500  -6324.7322      35.540507     -6289.1917      185.99173      182.39432      47.715401    
     31600  -6324.4407      35.676091     -6288.7646      185.94014      182.33961      47.736013    
     31700  -6321.1554      34.339581     -6286.8158      185.90086      182.29156      47.756624    
     31800  -6318.4921      34.52829      -6283.9638      185.85697      182.23264      47.777236    
     31900  -6317.5358      37.488584     -6280.0472      185.82197      182.18016      47.797847    
     32000  -6313.8497      37.095802     -6276.7539      185.77631      182.12451      47.818458    
     32100  -6314.2332      36.404529     -6277.8287      185.73098      182.07947      47.83907     
     32200  -6313.7795      36.075148     -6277.7044      185.67932      182.03366      47.859681    
     32300  -6311.3221      35.125264     -6276.1968      185.63264      181.98881      47.880293    
     32400  -6309.3496      35.761442     -6273.5882      185.59008      181.93708      47.900904    
     32500  -6305.8029      35.506859     -6270.2961      185.55211      181.88187      47.921515    
     32600  -6303.9296      35.776257     -6268.1533      185.51326      181.82993      47.942127    
     32700  -6303.848       35.645643     -6268.2024      185.46702      181.78         47.962738    
     32800  -6302.9647      34.806922     -6268.1577      185.42197      181.73618      47.98335     
     32900  -6300.428       34.718827     -6265.7092      185.37395      181.68728      48.003961    
     33000  -6297.8322      35.200985     -6262.6312      185.33373      181.64263      48.024572    
     33100  -6296.6711      36.34339      -6260.3277      185.28668      181.5906       48.045184    
     33200  -6295.2541      36.687667     -6258.5664      185.24815      181.54498      48.065795    
     33300  -6292.4087      34.956556     -6257.4521      185.20349      181.49064      48.086407    
     33400  -6292.2103      34.502742     -6257.7075      185.16749      181.44375      48.107018    
     33500  -6290.6056      33.577527     -6257.0281      185.12062      181.39178      48.12763     
     33600  -6287.3148      34.136019     -6253.1788      185.07781      181.3512       48.148241    
     33700  -6285.685       35.386138     -6250.2989      185.02757      181.30387      48.168852    
     33800  -6282.693       35.113295     -6247.5797      184.98909      181.25801      48.189464    
     33900  -6281.2467      36.435412     -6244.8113      184.94974      181.20286      48.210075    
     34000  -6279.2413      35.964161     -6243.2772      184.91229      181.15317      48.230687    
     34100  -6277.824       34.125399     -6243.6986      184.86848      181.1058       48.251298    
     34200  -6278.1489      35.450888     -6242.698       184.8236       181.06034      48.271909    
     34300  -6274.4115      34.83476      -6239.5767      184.78111      181.01357      48.292521    
     34400  -6272.6663      36.35968      -6236.3066      184.73867      180.96424      48.313132    
     34500  -6269.8962      35.365703     -6234.5305      184.6974       180.91989      48.333744    
     34600  -6269.2948      36.236898     -6233.0579      184.65159      180.87186      48.354355    
     34700  -6267.5677      35.494528     -6232.0731      184.61147      180.82618      48.374966    
     34800  -6267.5587      35.504745     -6232.054       184.57075      180.77341      48.395578    
     34900  -6264.1829      33.08905      -6231.0938      184.53411      180.72565      48.416189    
     35000  -6261.9892      35.343865     -6226.6453      184.48819      180.67812      48.436801    
     35100  -6258.9685      35.197917     -6223.7705      184.44267      180.63843      48.457412    
     35200  -6257.7988      36.318263     -6221.4805      184.39793      180.59076      48.478023    
     35300  -6255.9522      36.272711     -6219.6795      184.36046      180.54141      48.498635    
     35400  -6254.3404      35.366622     -6218.9738      184.32346      180.49049      48.519246    
     35500  -6254.2617      35.662722     -6218.599       184.28039      180.44091      48.539858    
     35600  -6251.6178      34.904106     -6216.7137      184.23932      180.39923      48.560469    
     35700  -6247.8763      35.833702     -6212.0426      184.19355      180.34907      48.58108     
     35800  -6246.8973      37.185884     -6209.7114      184.1579       180.30473      48.601692    
     35900  -6244.4425      35.88132      -6208.5612      184.11072      180.25321      48.622303    
     36000  -6243.4659      35.386531     -6208.0794      184.07234      180.21363      48.642915    
     36100  -6242.1611      34.844944     -6207.3162      184.02307      180.16288      48.663526    
     36200  -6240.2366      35.212863     -6205.0237      183.98983      180.11924      48.684137    
     36300  -6237.4459      36.798136     -6200.6478      183.9475       180.0616       48.704749    
     36400  -6233.6603      35.465903     -6198.1944      183.91202      180.01972      48.72536     
     36500  -6232.7936      35.785158     -6197.0085      183.86062      179.97233      48.745972    
     36600  -6231.7456      34.633301     -6197.1123      183.81863      179.93416      48.766583    
     36700  -6230.1191      34.352758     -6195.7663      183.7738       179.88271      48.787194    
     36800  -6227.3147      34.502369     -6192.8123      183.73874      179.83554      48.807806    
     36900  -6225.8149      35.605986     -6190.2089      183.69706      179.78382      48.828417    
     37000  -6222.9094      34.834948     -6188.0745      183.65555      179.7406       48.849029    
     37100  -6221.2869      35.293148     -6185.9938      183.61014      179.69463      48.86964     
     37200  -6219.5024      35.836667     -6183.6658      183.56748      179.64847      48.890251    
     37300  -6217.3335      36.064908     -6181.2686      183.52645      179.60255      48.910863    
     37400  -6215.4412      36.030185     -6179.411       183.48119      179.55502      48.931474    
     37500  -6214.7776      35.677159     -6179.1004      183.44093      179.51117      48.952086    
     37600  -6213.2099      34.87136      -6178.3385      183.3964       179.45986      48.972697    
     37700  -6210.3236      34.668923     -6175.6546      183.362        179.41232      48.993308    
     37800  -6208.0151      36.912845     -6171.1023      183.31708      179.36054      49.01392     
     37900  -6206.1584      37.027829     -6169.1306      183.27571      179.32038      49.034531    
     38000  -6204.6943      36.299649     -6168.3946      183.22232      179.27549      49.055143    
     38100  -6201.4658      33.770078     -6167.6957      183.18141      179.2339       49.075754    
     38200  -6200.6884      34.713558     -6165.9749      183.13856      179.17966      49.096366    
     38300  -6198.1425      35.93437      -6162.2081      183.10421      179.12978      49.116977    
     38400  -6195.9342      37.455536     -6158.4786      183.05939      179.07954      49.137588    
     38500  -6192.5661      34.717394     -6157.8487      183.01416      179.03719      49.1582      
     38600  -6191.8727      34.122972     -6157.7497      182.96569      178.99257      49.178811    
     38700  -6190.6278      34.376325     -6156.2515      182.92155      178.94634      49.199423    
     38800  -6188.7028      35.01123      -6153.6916      182.87703      178.8997       49.220034    
     38900  -6185.4496      35.558248     -6149.8913      182.83108      178.85278      49.240645    
     39000  -6183.241       37.19113      -6146.0499      182.78763      178.80635      49.261257    
     39100  -6181.9151      36.648891     -6145.2662      182.74635      178.75291      49.281868    
     39200  -6180.8851      36.418428     -6144.4666      182.70798      178.70125      49.30248     
     39300  -6179.111       35.606625     -6143.5044      182.66294      178.65199      49.323091    
     39400  -6177.4703      35.041733     -6142.4285      182.61263      178.60991      49.343702    
     39500  -6175.614       34.745854     -6140.8682      182.5612       178.56773      49.364314    
     39600  -6174.7867      37.574205     -6137.2125      182.51451      178.52035      49.384925    
     39700  -6170.0369      36.253241     -6133.7836      182.47516      178.46888      49.405537    
     39800  -6169.1147      36.823064     -6132.2916      182.4338       178.41318      49.426148    
     39900  -6167.402       34.916188     -6132.4858      182.39078      178.36439      49.446759    
     40000  -6165.8967      34.532333     -6131.3644      182.34134      178.31654      49.467371    
     40100  -6166.259       37.453147     -6128.8059      182.29384      178.27171      49.487982    
     40200  -6161.2396      35.428447     -6125.8112      182.2451       178.2228       49.508594    
     40300  -6157.8679      35.014671     -6122.8533      182.19843      178.17625      49.529205    
     40400  -6156.1987      35.612177     -6120.5865      182.15079      178.12622      49.549816    
     40500  -6154.5859      34.342503     -6120.2434      182.10628      178.07533      49.570428    
     40600  -6154.5859      34.717344     -6119.8685      182.06443      178.02122      49.591039    
     40700  -6152.2001      35.071246     -6117.1289      182.01937      177.96758      49.611651    
     40800  -6148.4132      35.168207     -6113.245       181.97196      177.92051      49.632262    
     40900  -6147.5241      36.54102      -6110.9831      181.91782      177.87396      49.652873    
     41000  -6144.9876      35.348703     -6109.6389      181.87041      177.82675      49.673485    
     41100  -6143.1188      34.612018     -6108.5068      181.8235       177.77196      49.694096    
     41200  -6141.5069      34.608999     -6106.8979      181.78307      177.71797      49.714708    
     41300  -6139.5297      35.852302     -6103.6774      181.73454      177.66205      49.735319    
     41400  -6136.4813      36.917619     -6099.5637      181.68844      177.61561      49.75593     
     41500  -6135.7842      37.514698     -6098.2695      181.63415      177.56304      49.776542    
     41600  -6135.0085      36.361133     -6098.6473      181.58784      177.51394      49.797153    
     41700  -6132.9901      35.290073     -6097.7         181.53687      177.46058      49.817765    
     41800  -6130.3287      35.121604     -6095.2071      181.48926      177.40965      49.838376    
     41900  -6128.4976      37.149983     -6091.3476      181.43873      177.35619      49.858987    
     42000  -6125.5599      36.885713     -6088.6742      181.39257      177.30209      49.879599    
     42100  -6124.307       35.22494      -6089.0821      181.34718      177.24515      49.90021     
     42200  -6124.1636      35.48198      -6088.6816      181.29746      177.19001      49.920822    
     42300  -6120.0594      34.569461     -6085.49        181.2439       177.14236      49.941433    
     42400  -6117.824       35.882637     -6081.9414      181.18703      177.09103      49.962045    
     42500  -6115.5583      36.178485     -6079.3798      181.13964      177.03926      49.982656    
     42600  -6113.1265      35.066117     -6078.0603      181.09193      176.97694      50.003267    
     42700  -6113.6921      34.930604     -6078.7615      181.04767      176.91942      50.023879    
     42800  -6111.8458      34.959604     -6076.8862      180.99393      176.86374      50.04449     
     42900  -6108.7093      35.347725     -6073.3615      180.94114      176.81334      50.065102    
     43000  -6106.0368      35.65678      -6070.38        180.88859      176.75718      50.085713    
     43100  -6104.0689      35.731        -6068.3379      180.83923      176.70012      50.106324    
     43200  -6102.5368      35.809667     -6066.7271      180.78704      176.64308      50.126936    
     43300  -6100.4319      34.794807     -6065.6371      180.73368      176.58851      50.147547    
     43400  -6099.35        33.266533     -6066.0834      180.68212      176.53194      50.168159    
     43500  -6097.9063      34.391189     -6063.5151      180.63198      176.47018      50.18877     
     43600  -6094.2667      34.70116      -6059.5656      180.58375      176.41105      50.209381    
     43700  -6093.9408      37.374451     -6056.5664      180.52741      176.35398      50.229993    
     43800  -6090.6532      36.560681     -6054.0925      180.47123      176.30156      50.250604    
     43900  -6088.5296      36.137822     -6052.3918      180.41494      176.24284      50.271216    
     44000  -6086.5796      34.24615      -6052.3335      180.36658      176.18181      50.291827    
     44100  -6085.9362      34.684053     -6051.2522      180.31587      176.11634      50.312438    
     44200  -6082.3808      34.773744     -6047.6071      180.26371      176.05758      50.33305     
     44300  -6079.7916      35.622992     -6044.1686      180.20575      176.00046      50.353661    
     44400  -6078.1412      35.942805     -6042.1984      180.14874      175.94135      50.374273    
     44500  -6077.2061      36.407886     -6040.7982      180.0961       175.88145      50.394884    
     44600  -6074.4107      34.986019     -6039.4247      180.03987      175.81732      50.415495    
     44700  -6073.6118      35.640933     -6037.9709      179.98498      175.75964      50.436107    
     44800  -6070.1105      34.440082     -6035.6704      179.92427      175.69783      50.456718    
     44900  -6068.0483      36.194989     -6031.8533      179.87147      175.63805      50.47733     
     45000  -6064.9979      35.912757     -6029.0851      179.81532      175.56959      50.497941    
     45100  -6063.4572      35.257105     -6028.2001      179.76214      175.50818      50.518552    
     45200  -6062.7793      34.263372     -6028.516       179.69921      175.44599      50.539164    
     45300  -6061.2654      35.062645     -6026.2028      179.63937      175.38784      50.559775    
     45400  -6057.9523      35.148396     -6022.8039      179.58131      175.32355      50.580387    
     45500  -6057.8679      38.048235     -6019.8196      179.52605      175.25464      50.600998    
     45600  -6053.8006      36.064214     -6017.7364      179.47113      175.18975      50.621609    
     45700  -6051.708       34.655998     -6017.052       179.40766      175.12487      50.642221    
     45800  -6051.3562      34.02177      -6017.3345      179.34822      175.06457      50.662832    
     45900  -6049.2143      34.899206     -6014.3151      179.28602      174.99658      50.683444    
     46000  -6045.7092      35.161599     -6010.5476      179.22976      174.93223      50.704055    
     46100  -6043.6447      35.859725     -6007.785       179.16694      174.86291      50.724666    
     46200  -6041.0174      35.228428     -6005.7889      179.10675      174.80125      50.745278    
     46300  -6040.0691      35.128565     -6004.9406      179.04154      174.73315      50.765889    
     46400  -6039.1933      34.308908     -6004.8844      178.9829       174.66656      50.786501    
     46500  -6035.3591      33.257388     -6002.1017      178.92164      174.59669      50.807112    
     46600  -6033.795       35.74856      -5998.0464      178.85795      174.52987      50.827723    
     46700  -6031.3452      35.615379     -5995.7299      178.79357      174.46464      50.848335    
     46800  -6029.1277      35.505566     -5993.6221      178.72878      174.3956       50.868946    
     46900  -6027.4398      35.774531     -5991.6652      178.66869      174.32526      50.889558    
     47000  -6026.1341      36.279735     -5989.8544      178.6053       174.25279      50.910169    
     47100  -6024.5256      36.014018     -5988.5116      178.54146      174.18465      50.930781    
     47200  -6020.843       33.853256     -5986.9898      178.47444      174.11499      50.951392    
     47300  -6019.1946      35.535382     -5983.6593      178.41038      174.04541      50.972003    
     47400  -6016.0883      36.327529     -5979.7608      178.34482      173.97218      50.992615    
     47500  -6014.5347      36.40341      -5978.1313      178.28015      173.90141      51.013226    
     47600  -6013.766       36.275715     -5977.4902      178.21157      173.83014      51.033838    
     47700  -6010.0923      34.117356     -5975.9749      178.14407      173.75997      51.054449    
     47800  -6008.8862      35.082124     -5973.8041      178.07739      173.68582      51.07506     
     47900  -6007.3479      35.800377     -5971.5475      178.0126       173.61046      51.095672    
     48000  -6005.0013      35.580814     -5969.4205      177.94571      173.53602      51.116283    
     48100  -6003.1287      35.997342     -5967.1314      177.87676      173.4626       51.136895    
     48200  -5999.4666      34.413157     -5965.0534      177.80639      173.38992      51.157506    
     48300  -5998.0699      34.538285     -5963.5316      177.73587      173.31714      51.178117    
     48400  -5997.9608      35.555572     -5962.4052      177.66564      173.24241      51.198729    
     48500  -5995.5907      34.919896     -5960.6708      177.5949       173.16807      51.21934     
     48600  -5993.2566      36.119913     -5957.1367      177.52302      173.09322      51.239952    
     48700  -5989.4496      36.193119     -5953.2564      177.45255      173.01741      51.260563    
     48800  -5987.7697      36.206314     -5951.5633      177.3833       172.93882      51.281174    
     48900  -5986.3759      35.020507     -5951.3553      177.3143       172.86055      51.301786    
     49000  -5983.3807      33.077501     -5950.3032      177.24289      172.78193      51.322397    
     49100  -5983.2432      35.436167     -5947.807       177.17033      172.70512      51.343009    
     49200  -5980.3959      35.723444     -5944.6724      177.09682      172.62799      51.36362     
     49300  -5978.1677      36.561661     -5941.6061      177.02317      172.54976      51.384231    
     49400  -5974.7792      35.481571     -5939.2976      176.95076      172.47246      51.404843    
     49500  -5974.5372      35.334072     -5939.2031      176.87528      172.3916       51.425454    
     49600  -5972.7923      34.370844     -5938.4214      176.80465      172.31291      51.446066    
     49700  -5970.7024      35.146623     -5935.5557      176.72947      172.22992      51.466677    
     49800  -5966.6218      35.032142     -5931.5897      176.65737      172.15113      51.487288    
     49900  -5965.5197      36.48564      -5929.0341      176.5795       172.06898      51.5079      
     50000  -5964.3545      36.881173     -5927.4734      176.50558      171.99216      51.528511    
     50100  -5962.1091      36.101677     -5926.0075      176.42651      171.9102       51.549123    
     50200  -5959.9152      35.313175     -5924.6021      176.35264      171.83044      51.569734    
     50300  -5958.8901      35.889097     -5923.001       176.27705      171.74735      51.590345    
     50400  -5955.3107      34.60901      -5920.7017      176.20184      171.66345      51.610957    
     50500  -5953.3429      36.336359     -5917.0066      176.12799      171.58099      51.631568    
     50600  -5950.1716      36.307178     -5913.8644      176.04948      171.49634      51.65218     
     50700  -5949.3715      36.650667     -5912.7209      175.97307      171.41748      51.672791    
     50800  -5947.8343      34.964799     -5912.8695      175.89048      171.33398      51.693402    
     50900  -5945.5098      34.61314      -5910.8966      175.81444      171.25531      51.714014    
     51000  -5942.8473      35.014726     -5907.8326      175.73455      171.16849      51.734625    
     51100  -5940.2621      35.570303     -5904.6918      175.66025      171.08506      51.755237    
     51200  -5937.0797      35.436865     -5901.6429      175.58362      170.99905      51.775848    
     51300  -5936.426       37.592443     -5898.8335      175.50581      170.9138       51.79646     
     51400  -5934.2264      35.615096     -5898.6113      175.42838      170.83085      51.817071    
     51500  -5933.92        35.947208     -5897.9728      175.34711      170.7471       51.837682    
     51600  -5930.3227      34.180546     -5896.1421      175.26825      170.66653      51.858294    
     51700  -5929.1164      36.386818     -5892.7296      175.18667      170.58187      51.878905    
     51800  -5925.3502      36.972925     -5888.3773      175.10993      170.49745      51.899517    
     51900  -5923.6697      36.935856     -5886.7339      175.03262      170.40963      51.920128    
     52000  -5921.7721      35.843607     -5885.9285      174.95592      170.32319      51.940739    
     52100  -5921.425       36.734708     -5884.6903      174.87624      170.23961      51.961351    
     52200  -5918.3629      34.657452     -5883.7054      174.79413      170.15818      51.981962    
     52300  -5917.3588      35.512231     -5881.8466      174.71195      170.07627      52.002574    
     52400  -5914.4426      35.813891     -5878.6287      174.63233      169.9928       52.023185    
     52500  -5911.4246      37.089427     -5874.3352      174.5552       169.90701      52.043796    
     52600  -5909.9614      37.445786     -5872.5156      174.47791      169.81985      52.064408    
     52700  -5907.7476      35.37653      -5872.3711      174.40125      169.73512      52.085019    
     52800  -5905.8348      35.002874     -5870.8319      174.32145      169.64922      52.105631    
     52900  -5903.5564      35.05289      -5868.5035      174.24432      169.56802      52.126242    
     53000  -5902.615       37.156007     -5865.459       174.16085      169.48347      52.146853    
     53100  -5899.4519      37.811193     -5861.6407      174.08178      169.40626      52.167465    
     53200  -5895.8083      36.868884     -5858.9394      173.99799      169.322        52.188076    
     53300  -5895.2564      35.677415     -5859.5789      173.92385      169.24081      52.208688    
     53400  -5893.756       35.162726     -5858.5933      173.84787      169.1521       52.229299    
     53500  -5892.1734      35.837307     -5856.3361      173.77547      169.06759      52.24991     
     53600  -5889.5512      36.160543     -5853.3906      173.69733      168.9828       52.270522    
     53700  -5886.5051      36.905788     -5849.5993      173.61943      168.90444      52.291133    
     53800  -5884.5373      37.52435      -5847.0129      173.5386       168.82457      52.311745    
     53900  -5883.483       35.892261     -5847.5907      173.46131      168.74473      52.332356    
     54000  -5881.2924      35.07345      -5846.219       173.38702      168.66453      52.352967    
     54100  -5877.8732      34.54166      -5843.3315      173.31171      168.58097      52.373579    
     54200  -5875.8782      36.113155     -5839.765       173.23954      168.50024      52.39419     
     54300  -5871.891       35.232236     -5836.6587      173.16491      168.41662      52.414802    
     54400  -5871.1992      36.049877     -5835.1493      173.09408      168.33821      52.435413    
     54500  -5869.8676      34.64199      -5835.2256      173.01639      168.25917      52.456024    
     54600  -5868.0561      34.498399     -5833.5577      172.94086      168.18683      52.476636    
     54700  -5865.5914      35.110898     -5830.4805      172.86149      168.11001      52.497247    
     54800  -5862.1247      35.856645     -5826.268       172.79226      168.03536      52.517859    
     54900  -5861.5949      37.891916     -5823.703       172.7235       167.95037      52.53847     
     55000  -5860.028       35.922102     -5824.1059      172.65783      167.87122      52.559081    
     55100  -5858.1173      35.531111     -5822.5861      172.58725      167.79462      52.579693    
     55200  -5854.0982      34.210985     -5819.8872      172.51367      167.72125      52.600304    
     55300  -5853.1343      36.322439     -5816.8119      172.441        167.65166      52.620916    
     55400  -5850.9821      36.665434     -5814.3167      172.36824      167.57856      52.641527    
     55500  -5848.27        34.893358     -5813.3766      172.30018      167.50796      52.662138    
     55600  -5847.0151      34.067275     -5812.9478      172.23293      167.43211      52.68275     
     55700  -5846.4644      36.136241     -5810.3282      172.17126      167.35633      52.703361    
     55800  -5843.0752      36.200642     -5806.8745      172.10698      167.27947      52.723973    
     55900  -5840.2091      37.246961     -5802.9621      172.04249      167.2094       52.744584    
     56000  -5835.6797      37.590411     -5798.0893      171.97161      167.14272      52.765196    
     56100  -5834.1383      36.677986     -5797.4603      171.9008       167.08017      52.785807    
     56200  -5834.8211      37.477204     -5797.3439      171.83442      167.01553      52.806418    
     56300  -5831.9905      35.628373     -5796.3621      171.77138      166.94434      52.82703     
     56400  -5830.55        35.461098     -5795.0889      171.71529      166.87368      52.847641    
     56500  -5829.6337      36.391478     -5793.2422      171.65582      166.8023       52.868253    
     56600  -5825.5805      34.990703     -5790.5898      171.59475      166.73679      52.888864    
     56700  -5821.9629      35.588192     -5786.3748      171.53173      166.6736       52.909475    
     56800  -5820.2426      36.960396     -5783.2822      171.46837      166.61167      52.930087    
     56900  -5819.1871      35.925653     -5783.2615      171.4055       166.55145      52.950698    
     57000  -5818.064       36.146392     -5781.9176      171.34533      166.49106      52.97131     
     57100  -5815.3364      35.827696     -5779.5087      171.28894      166.42713      52.991921    
     57200  -5812.2452      35.594687     -5776.6505      171.23577      166.35954      53.012532    
     57300  -5810.2603      36.628018     -5773.6323      171.18619      166.29444      53.033144    
     57400  -5807.0951      35.935125     -5771.1599      171.1289       166.23404      53.053755    
     57500  -5806.1992      35.613545     -5770.5857      171.06768      166.18129      53.074367    
     57600  -5804.5252      34.860166     -5769.665       171.00581      166.1291       53.094978    
     57700  -5802.0874      35.055489     -5767.0319      170.94829      166.07456      53.115589    
     57800  -5800.8496      37.395365     -5763.4542      170.89664      166.01632      53.136201    
     57900  -5795.6056      36.831891     -5758.7737      170.84546      165.95637      53.156812    
     58000  -5793.3096      36.207489     -5757.1021      170.7968       165.90035      53.177424    
     58100  -5792.9476      35.914245     -5757.0333      170.74729      165.84287      53.198035    
     58200  -5791.414       36.112489     -5755.3016      170.69617      165.78917      53.218646    
     58300  -5788.2727      34.430899     -5753.8418      170.64212      165.73909      53.239258    
     58400  -5787.9815      35.76464      -5752.2169      170.58667      165.69387      53.259869    
     58500  -5785.7172      35.727581     -5749.9896      170.5322       165.64599      53.280481    
     58600  -5781.5854      35.354329     -5746.2311      170.4877       165.59347      53.301092    
     58700  -5778.5841      36.053065     -5742.531       170.44489      165.53466      53.321703    
     58800  -5776.1087      34.934502     -5741.1742      170.40401      165.48249      53.342315    
     58900  -5776.8565      35.918419     -5740.9381      170.35627      165.43428      53.362926    
     59000  -5772.9587      34.237091     -5738.7216      170.30465      165.38925      53.383538    
     59100  -5771.9612      36.147846     -5735.8134      170.25796      165.34754      53.404149    
     59200  -5770.0605      37.38652      -5732.6739      170.20803      165.29987      53.42476     
     59300  -5765.7567      36.802641     -5728.954       170.16586      165.25696      53.445372    
     59400  -5762.9532      36.429964     -5726.5232      170.12206      165.20585      53.465983    
     59500  -5761.905       35.184758     -5726.7202      170.08678      165.16052      53.486595    
     59600  -5758.5371      33.400758     -5725.1363      170.04518      165.10865      53.507206    
     59700  -5757.529       34.554469     -5722.9745      170.00676      165.06811      53.527817    
     59800  -5755.7907      35.496895     -5720.2938      169.95664      165.02614      53.548429    
     59900  -5752.753       35.60235      -5717.1507      169.91385      164.99192      53.56904     
     60000  -5750.0753      35.856949     -5714.2183      169.86823      164.94949      53.589652    
     60100  -5749.1696      36.114223     -5713.0553      169.83344      164.9074       53.610263    
     60200  -5747.2387      34.843509     -5712.3952      169.79766      164.86023      53.630875    
     60300  -5746.1098      35.780693     -5710.3291      169.76375      164.81826      53.651486    
     60400  -5742.4137      35.18078      -5707.2329      169.72537      164.77625      53.672097    
     60500  -5740.791       38.503984     -5702.287       169.68657      164.7385       53.692709    
     60600  -5736.854       37.860914     -5698.9931      169.64537      164.70149      53.71332     
     60700  -5735.2232      36.980378     -5698.2428      169.60587      164.66914      53.733932    
     60800  -5732.3056      35.266014     -5697.0396      169.56597      164.6312       53.754543    
     60900  -5730.521       34.667164     -5695.8538      169.53531      164.5912       53.775154    
     61000  -5728.9643      34.399422     -5694.5649      169.50555      164.54755      53.795766    
     61100  -5727.4821      35.060738     -5692.4214      169.47499      164.50716      53.816377    
     61200  -5724.4718      35.903471     -5688.5683      169.43872      164.47281      53.836989    
     61300  -5721.0049      36.998133     -5684.0067      169.39987      164.44078      53.8576      
     61400  -5719.2441      36.783072     -5682.461       169.3644       164.40882      53.878211    
     61500  -5717.6653      35.981376     -5681.6839      169.32967      164.37293      53.898823    
     61600  -5715.7401      36.089562     -5679.6505      169.29974      164.33745      53.919434    
     61700  -5711.9827      34.57157      -5677.4111      169.26895      164.30033      53.940046    
     61800  -5711.9579      36.186354     -5675.7715      169.24095      164.26447      53.960657    
     61900  -5708.5238      33.542002     -5674.9818      169.21056      164.22857      53.981268    
     62000  -5706.7457      33.693782     -5673.0519      169.17846      164.1985       54.00188     
     62100  -5702.6842      34.730617     -5667.9536      169.14231      164.16865      54.022491    
     62200  -5701.3498      36.919158     -5664.4306      169.11031      164.13976      54.043103    
     62300  -5698.2034      35.889619     -5662.3137      169.08041      164.10385      54.063714    
     62400  -5696.9604      35.676801     -5661.2836      169.05616      164.07049      54.084325    
     62500  -5694.6215      34.80718      -5659.8143      169.02724      164.03405      54.104937    
     62600  -5691.8794      34.952199     -5656.9272      169.00157      164.00431      54.125548    
     62700  -5687.8313      35.858003     -5651.9733      168.96846      163.97187      54.14616     
     62800  -5685.5017      38.03097      -5647.4708      168.93966      163.94548      54.166771    
     62900  -5682.8528      36.035585     -5646.8173      168.90541      163.91547      54.187382    
     63000  -5681.7184      35.634986     -5646.0835      168.87913      163.88921      54.207994    
     63100  -5679.4252      34.74631      -5644.6789      168.85267      163.85288      54.228605    
     63200  -5678.6067      35.940011     -5642.6667      168.83338      163.81968      54.249217    
     63300  -5674.591       34.223424     -5640.3676      168.8068       163.78399      54.269828    
     63400  -5673.1847      35.218144     -5637.9665      168.78024      163.75973      54.290439    
     63500  -5670.6816      35.995005     -5634.6866      168.74568      163.73227      54.311051    
     63600  -5666.6325      36.047827     -5630.5847      168.71964      163.70828      54.331662    
     63700  -5664.3172      36.108155     -5628.209       168.6904       163.6762       54.352274    
     63800  -5662.3335      34.649644     -5627.6839      168.66986      163.6481       54.372885    
     63900  -5660.9095      34.975747     -5625.9337      168.64482      163.6146       54.393496    
     64000  -5659.0147      36.410736     -5622.604       168.62387      163.58437      54.414108    
     64100  -5653.9138      34.881122     -5619.0327      168.59729      163.55482      54.434719    
     64200  -5652.2313      38.491357     -5613.74        168.56795      163.53216      54.455331    
     64300  -5648.336       38.490077     -5609.8459      168.53707      163.50833      54.475942    
     64400  -5646.7084      36.735978     -5609.9724      168.5129       163.48212      54.496553    
     64500  -5645.0144      36.726834     -5608.2875      168.49237      163.44874      54.517165    
     64600  -5642.8506      36.126032     -5606.7245      168.47303      163.4187       54.537776    
     64700  -5641.2015      35.93817      -5605.2634      168.44871      163.38951      54.558388    
     64800  -5638.0818      35.22867      -5602.8531      168.42536      163.36449      54.578999    
     64900  -5635.271       36.105087     -5599.1659      168.39781      163.33848      54.599611    
     65000  -5631.3077      37.12897      -5594.1788      168.37155      163.31623      54.620222    
     65100  -5626.7905      35.499631     -5591.2909      168.34392      163.29075      54.640833    
     65200  -5626.607       35.675067     -5590.9319      168.32579      163.26212      54.661445    
     65300  -5624.365       35.437521     -5588.9275      168.30741      163.22714      54.682056    
     65400  -5622.7286      36.518453     -5586.2101      168.28948      163.19958      54.702668    
     65500  -5619.797       35.713549     -5584.0834      168.2613       163.17373      54.723279    
     65600  -5616.9207      34.34035      -5582.5804      168.2357       163.15466      54.74389     
     65700  -5614.9745      34.375776     -5580.5988      168.20927      163.12838      54.764502    
     65800  -5610.9933      34.310137     -5576.6832      168.18845      163.10342      54.785113    
     65900  -5608.1101      36.989508     -5571.1206      168.16637      163.0743       54.805725    
     66000  -5607.0532      38.844978     -5568.2082      168.14716      163.04734      54.826336    
     66100  -5601.8197      34.879714     -5566.94        168.12628      163.01893      54.846947    
     66200  -5599.2367      34.274814     -5564.9619      168.10405      162.99479      54.867559    
     66300  -5599.2126      36.745652     -5562.4669      168.07581      162.97313      54.88817     
     66400  -5595.2705      35.606729     -5559.6638      168.05072      162.9521       54.908782    
     66500  -5591.2301      33.719228     -5557.5109      168.0295       162.92529      54.929393    
     66600  -5591.4386      35.421021     -5556.0175      168.01161      162.8955       54.950004    
     66700  -5587.8711      34.813366     -5553.0577      167.99319      162.86849      54.970616    
     66800  -5583.1001      34.964504     -5548.1356      167.96986      162.84222      54.991227    
     66900  -5580.4942      37.033706     -5543.4604      167.94727      162.81979      55.011839    
     67000  -5578.1037      37.026958     -5541.0768      167.92129      162.79679      55.03245     
     67100  -5575.2777      36.287683     -5538.99        167.8979       162.77524      55.053061    
     67200  -5573.9294      37.039802     -5536.8896      167.87469      162.74917      55.073673    
     67300  -5570.7223      36.477847     -5534.2444      167.85836      162.7219       55.094284    
     67400  -5566.7938      35.325616     -5531.4681      167.8384       162.69226      55.114896    
     67500  -5565.7958      35.256371     -5530.5395      167.81735      162.66928      55.135507    
     67600  -5563.6908      34.735149     -5528.9557      167.79068      162.6464       55.156118    
     67700  -5558.7532      34.608879     -5524.1443      167.76711      162.62598      55.17673     
     67800  -5555.1142      35.668159     -5519.446       167.74309      162.60066      55.197341    
     67900  -5552.013       36.100453     -5515.9126      167.7231       162.57626      55.217953    
     68000  -5549.9397      36.554367     -5513.3853      167.70381      162.54686      55.238564    
     68100  -5547.5151      36.579798     -5510.9353      167.68632      162.52037      55.259175    
     68200  -5543.2764      35.614739     -5507.6617      167.6634       162.49383      55.279787    
     68300  -5540.6843      35.955417     -5504.7289      167.64027      162.47476      55.300398    
     68400  -5537.4854      34.782692     -5502.7027      167.61238      162.45087      55.32101     
     68500  -5536.3078      36.260913     -5500.0469      167.59344      162.4295       55.341621    
[...]
     81700  -6479.3065      34.730291     -6444.5762      164.29182      159.79088      58.062326    
     81800  -6479.5044      35.998073     -6443.5063      164.27356      159.7969       58.082938    
     81900  -6477.2099      35.78928      -6441.4206      164.2498       159.79351      58.103549    
     82000  -6476.5199      36.993931     -6439.526       164.22675      159.80172      58.124161    
     82100  -6476.1134      36.265581     -6439.8479      164.18768      159.80704      58.144772    
     82200  -6476.3007      34.938428     -6441.3623      164.15168      159.81456      58.165383    
     82300  -6477.2704      34.706939     -6442.5634      164.11066      159.81905      58.185995    
     82400  -6478.3934      35.963202     -6442.4302      164.07213      159.82205      58.206606    
     82500  -6476.3684      34.683844     -6441.6846      164.03326      159.81628      58.227218    
     82600  -6478.2543      37.328162     -6440.9262      163.9856       159.81378      58.247829    
     82700  -6475.9118      34.683284     -6441.2285      163.93209      159.81767      58.268441    
     82800  -6477.5583      35.800549     -6441.7577      163.86921      159.82276      58.289052    
     82900  -6477.6737      35.558176     -6442.1155      163.80806      159.83528      58.309663    
     83000  -6478.5585      36.671844     -6441.8867      163.75198      159.83843      58.330275    
     83100  -6476.3606      34.920018     -6441.4405      163.70155      159.83541      58.350886    
     83200  -6476.6096      35.875207     -6440.7344      163.65697      159.8254       58.371498    
     83300  -6475.759       35.384595     -6440.3744      163.6069       159.81369      58.392109    
     83400  -6475.6438      36.120181     -6439.5237      163.55877      159.80976      58.41272     
     83500  -6475.403       36.43196      -6438.971       163.50466      159.81195      58.433332    
     83600  -6474.6448      35.754244     -6438.8905      163.44442      159.82111      58.453943    
     83700  -6474.3959      35.214002     -6439.1819      163.38501      159.83038      58.474555    
     83800  -6476.2408      36.848471     -6439.3923      163.32991      159.82617      58.495166    
     83900  -6475.9467      36.548095     -6439.3986      163.2899       159.82367      58.515777    
     84000  -6475.3711      35.737486     -6439.6336      163.24586      159.81461      58.536389    
     84100  -6474.445       34.653001     -6439.792       163.1985       159.81399      58.557       
     84200  -6476.61        36.488316     -6440.1217      163.13763      159.81918      58.577612    
     84300  -6475.6109      35.591345     -6440.0195      163.07879      159.83332      58.598223    
     84400  -6475.4375      36.182681     -6439.2548      163.01504      159.83535      58.618834    
     84500  -6475.2746      36.054365     -6439.2202      162.96402      159.83939      58.639446    
     84600  -6474.4876      34.976515     -6439.511       162.90998      159.83446      58.660057    
     84700  -6474.1679      35.030914     -6439.137       162.85044      159.83267      58.680669    
     84800  -6474.7917      36.708316     -6438.0834      162.78603      159.8316       58.70128     
     84900  -6473.2083      35.590936     -6437.6173      162.71606      159.83592      58.721891    
     85000  -6473.3586      35.848943     -6437.5096      162.63885      159.84013      58.742503    
     85100  -6473.8579      36.441259     -6437.4167      162.56244      159.8409       58.763114    
     85200  -6473.6629      35.829541     -6437.8334      162.48316      159.84182      58.783726    
     85300  -6473.482       35.155991     -6438.326       162.40704      159.83394      58.804337    
     85400  -6473.816       34.776921     -6439.0391      162.33039      159.8242       58.824948    
     85500  -6473.9925      34.880062     -6439.1124      162.25042      159.82488      58.84556     
     85600  -6473.5741      35.409695     -6438.1644      162.15741      159.8188       58.866171    
     85700  -6472.5987      35.362268     -6437.2364      162.06652      159.81997      58.886783    
     85800  -6473.5352      36.424059     -6437.1111      161.96715      159.81999      58.907394    
     85900  -6474.4137      36.481702     -6437.932       161.87106      159.81591      58.928005    
     86000  -6475.0685      36.497557     -6438.5709      161.77936      159.8111       58.948617    
     86100  -6472.8561      34.876542     -6437.9795      161.68369      159.80336      58.969228    
     86200  -6471.1607      34.790807     -6436.3699      161.58882      159.80393      58.98984     
     86300  -6470.8175      35.87075      -6434.9468      161.49563      159.80428      59.010451    
     86400  -6469.7919      34.779431     -6435.0125      161.39635      159.80807      59.031062    
     86500  -6472.1568      35.868901     -6436.2879      161.29561      159.81442      59.051674    
     86600  -6472.2507      34.524533     -6437.7262      161.19509      159.81717      59.072285    
     86700  -6472.8795      35.427018     -6437.4524      161.10016      159.81756      59.092897    
     86800  -6471.0301      35.944272     -6435.0859      161.00655      159.81629      59.113508    
     86900  -6470.6922      37.8089       -6432.8833      160.91147      159.81297      59.13412     
     87000  -6470.7631      37.581135     -6433.182       160.81498      159.8055       59.154731    
     87100  -6471.6689      35.9751       -6435.6938      160.71644      159.80689      59.175342    
     87200  -6471.6379      33.872863     -6437.765       160.61064      159.803        59.195954    
     87300  -6471.3747      33.962058     -6437.4126      160.50864      159.7976       59.216565    
     87400  -6471.4607      36.717196     -6434.7435      160.40314      159.78454      59.237177    
     87500  -6468.4587      36.596497     -6431.8622      160.30097      159.78162      59.257788    
     87600  -6467.7857      36.361586     -6431.4241      160.18999      159.77444      59.278399    
     87700  -6470.8589      37.211704     -6433.6472      160.07805      159.77173      59.299011    
     87800  -6471.5148      34.889928     -6436.6248      159.95357      159.76316      59.319622    
     87900  -6472.4361      34.577664     -6437.8584      159.82532      159.76086      59.340234    
     88000  -6470.228       33.929111     -6436.2989      159.69948      159.75882      59.360845    
     88100  -6470.5166      37.039847     -6433.4767      159.57701      159.74818      59.381456    
     88200  -6470.5867      38.744579     -6431.8421      159.44975      159.73394      59.402068    
     88300  -6469.0689      35.862641     -6433.2062      159.32101      159.72465      59.422679    
     88400  -6471.517       35.534041     -6435.983       159.18668      159.71836      59.443291    
     88500  -6472.267       34.987434     -6437.2795      159.05698      159.71797      59.463902    
     88600  -6471.7442      35.721727     -6436.0225      158.92445      159.71698      59.484513    
     88700  -6468.8102      35.816306     -6432.9939      158.79311      159.71286      59.505125    
     88800  -6467.5627      36.620354     -6430.9423      158.66389      159.70332      59.525736    
     88900  -6467.0273      35.443417     -6431.5839      158.54221      159.70123      59.546348    
     89000  -6468.393       34.223239     -6434.1697      158.41159      159.69405      59.566959    
     89100  -6469.7933      33.833454     -6435.9598      158.28377      159.70147      59.58757     
     89200  -6468.47        33.652577     -6434.8174      158.14722      159.69614      59.608182    
     89300  -6468.5713      36.729152     -6431.8421      158.02596      159.7035       59.628793    
     89400  -6466.6821      37.584463     -6429.0977      157.89346      159.69425      59.649405    
     89500  -6466.3269      37.141267     -6429.1856      157.77605      159.69892      59.670016    
     89600  -6466.7512      34.749162     -6432.0021      157.64285      159.69369      59.690627    
     89700  -6469.535       35.151187     -6434.3838      157.52029      159.69233      59.711239    
     89800  -6468.4992      34.172076     -6434.3271      157.39205      159.68047      59.73185     
     89900  -6467.0492      35.635165     -6431.4141      157.26595      159.67688      59.752462    
     90000  -6465.3638      37.065394     -6428.2984      157.13684      159.66591      59.773073    
     90100  -6466.0199      37.651796     -6428.3681      157.01122      159.65708      59.793684    
     90200  -6467.3139      35.977356     -6431.3366      156.88351      159.63946      59.814296    
     90300  -6468.9537      35.238624     -6433.7151      156.76008      159.62344      59.834907    
     90400  -6467.8847      34.191354     -6433.6933      156.62837      159.60903      59.855519    
     90500  -6467.9968      36.856596     -6431.1402      156.49414      159.60362      59.87613     
     90600  -6465.969       37.407986     -6428.561       156.35835      159.59679      59.896741    
     90700  -6466.1229      37.735157     -6428.3878      156.22496      159.5863       59.917353    
     90800  -6466.39        35.810596     -6430.5794      156.0916       159.57087      59.937964    
     90900  -6465.8893      33.15936      -6432.73        155.9689       159.55613      59.958576    
     91000  -6467.3319      34.433126     -6432.8988      155.84469      159.53766      59.979187    
     91100  -6466.2143      35.298217     -6430.9161      155.72024      159.52883      59.999798    
     91200  -6466.0185      37.665192     -6428.3533      155.58889      159.51591      60.02041     
     91300  -6465.331       37.726529     -6427.6044      155.46215      159.51205      60.041021    
     91400  -6464.5527      35.824074     -6428.7286      155.33522      159.51058      60.061633    
     91500  -6464.704       33.852495     -6430.8515      155.2131       159.5076       60.082244    
     91600  -6464.9581      33.818945     -6431.1392      155.08784      159.50084      60.102856    
     91700  -6465.5349      35.961954     -6429.573       154.96877      159.49814      60.123467    
     91800  -6463.2905      35.818598     -6427.4719      154.84689      159.4909       60.144078    
     91900  -6462.8951      36.768326     -6426.1268      154.72991      159.48913      60.16469     
     92000  -6462.3318      35.808398     -6426.5234      154.61542      159.48495      60.185301    
     92100  -6463.2177      35.021766     -6428.1959      154.49629      159.47645      60.205913    
     92200  -6464.0766      34.832379     -6429.2442      154.37976      159.4676       60.226524    
     92300  -6463.5802      35.190331     -6428.3899      154.26254      159.45646      60.247135    
     92400  -6462.053       35.564851     -6426.4881      154.15241      159.44989      60.267747    
     92500  -6460.5027      35.541491     -6424.9612      154.03674      159.43729      60.288358    
     92600  -6462.6082      37.462623     -6425.1456      153.91929      159.42386      60.30897     
     92700  -6462.4513      35.467168     -6426.9841      153.8106       159.41124      60.329581    
     92800  -6462.9089      34.02666      -6428.8822      153.69706      159.39187      60.350192    
     92900  -6463.2352      34.26321      -6428.9719      153.58964      159.38182      60.370804    
     93000  -6464.3002      37.094923     -6427.2053      153.47805      159.36417      60.391415    
     93100  -6461.9723      36.416917     -6425.5554      153.37458      159.347        60.412027    
     93200  -6461.3872      36.107525     -6425.2796      153.26586      159.32701      60.432638    
     93300  -6461.5266      35.261893     -6426.2647      153.15708      159.31198      60.453249    
     93400  -6462.0484      34.5544       -6427.494       153.04286      159.29971      60.473861    
     93500  -6462.7574      35.096322     -6427.6611      152.93006      159.29431      60.494472    
     93600  -6461.5349      35.271148     -6426.2638      152.81769      159.2902       60.515084    
     93700  -6458.9061      34.546663     -6424.3595      152.71077      159.28617      60.535695    
     93800  -6460.8294      37.349807     -6423.4796      152.61308      159.26991      60.556306    
     93900  -6461.4807      36.499095     -6424.9816      152.52036      159.25704      60.576918    
     94000  -6460.092       33.473023     -6426.619       152.42229      159.24571      60.597529    
     94100  -6460.3073      33.92455      -6426.3827      152.31892      159.24442      60.618141    
     94200  -6460.7096      36.034858     -6424.6748      152.21138      159.2504       60.638752    
     94300  -6458.925       35.954758     -6422.9703      152.10675      159.25083      60.659363    
     94400  -6458.6484      36.155892     -6422.4925      152.01032      159.24106      60.679975    
     94500  -6460.3846      36.916036     -6423.4686      151.92539      159.22288      60.700586    
     94600  -6458.5506      33.653671     -6424.8969      151.8399       159.20421      60.721198    
     94700  -6459.4933      34.479881     -6425.0134      151.75305      159.19608      60.741809    
     94800  -6459.2863      35.506859     -6423.7795      151.66005      159.19033      60.76242     
     94900  -6458.4288      36.622722     -6421.806       151.56562      159.18776      60.783032    
     95000  -6457.2087      36.514287     -6420.6945      151.47267      159.17568      60.803643    
     95100  -6457.3683      36.150823     -6421.2175      151.38391      159.15876      60.824255    
     95200  -6458.5433      35.525419     -6423.0178      151.3016       159.13958      60.844866    
     95300  -6459.463       34.865314     -6424.5976      151.22198      159.11794      60.865477    
     95400  -6458.1718      33.965007     -6424.2067      151.13964      159.09542      60.886089    
     95500  -6457.2263      35.215067     -6422.0113      151.05528      159.07658      60.9067      
     95600  -6456.3918      36.460181     -6419.9316      150.9669       159.06398      60.927312    
     95700  -6457.1738      37.45268      -6419.7211      150.88023      159.05516      60.947923    
     95800  -6457.2766      35.696486     -6421.5801      150.79604      159.04193      60.968535    
     95900  -6457.0718      34.185512     -6422.8863      150.71536      159.02454      60.989146    
     96000  -6459.2929      36.742348     -6422.5506      150.63745      159.0026       61.009757    
     96100  -6455.9664      35.091234     -6420.8751      150.56185      158.98565      61.030369    
     96200  -6456.0311      37.176958     -6418.8542      150.48117      158.9709       61.05098     
     96300  -6454.923       36.547645     -6418.3753      150.40134      158.96713      61.071592    
     96400  -6455.574       35.896865     -6419.6771      150.31832      158.96212      61.092203    
     96500  -6456.9022      35.484768     -6421.4175      150.23572      158.96062      61.112814    
     96600  -6457.729       35.598711     -6422.1303      150.156        158.9585       61.133426    
     96700  -6455.5985      34.638884     -6420.9597      150.08699      158.95295      61.154037    
     96800  -6454.9741      36.550721     -6418.4233      150.01599      158.93774      61.174649    
     96900  -6454.0073      37.03647      -6416.9709      149.94788      158.92936      61.19526     
     97000  -6453.1909      35.796148     -6417.3947      149.87341      158.91927      61.215871    
     97100  -6454.3743      35.33485      -6419.0394      149.79593      158.91502      61.236483    
     97200  -6454.3329      33.847996     -6420.4849      149.71768      158.9073       61.257094    
     97300  -6454.1938      34.581088     -6419.6127      149.64757      158.9011       61.277706    
     97400  -6452.3763      35.489147     -6416.8872      149.57753      158.88425      61.298317    
     97500  -6452.6091      37.385825     -6415.2233      149.51463      158.86601      61.318928    
     97600  -6451.6916      35.484663     -6416.2069      149.45083      158.8449       61.33954     
     97700  -6453.304       35.166608     -6418.1374      149.38434      158.82915      61.360151    
     97800  -6454.795       35.464792     -6419.3302      149.31181      158.80952      61.380763    
     97900  -6454.2707      35.436927     -6418.8337      149.24352      158.79444      61.401374    
     98000  -6452.6069      35.846116     -6416.7608      149.17558      158.77653      61.421985    
     98100  -6451.2197      36.898067     -6414.3216      149.11226      158.75762      61.442597    
     98200  -6452.076       37.8382       -6414.2378      149.04631      158.73671      61.463208    
     98300  -6451.7425      35.489565     -6416.253       148.97494      158.72724      61.48382     
     98400  -6451.9045      33.863774     -6418.0407      148.89697      158.72187      61.504431    
     98500  -6453.495       35.790042     -6417.7049      148.82198      158.72006      61.525042    
     98600  -6451.1119      35.487442     -6415.6245      148.75288      158.70802      61.545654    
     98700  -6449.8578      36.316575     -6413.5412      148.68943      158.69697      61.566265    
     98800  -6449.5633      36.471658     -6413.0916      148.6256       158.68309      61.586877    
     98900  -6450.69        36.084934     -6414.6051      148.56441      158.67455      61.607488    
     99000  -6451.6127      35.23875      -6416.3739      148.50176      158.67206      61.628099    
     99100  -6451.7783      35.043204     -6416.735       148.43688      158.67198      61.648711    
     99200  -6449.9761      34.705312     -6415.2708      148.37127      158.66939      61.669322    
     99300  -6449.8521      36.654756     -6413.1973      148.30974      158.66734      61.689934    
     99400  -6448.9886      36.958445     -6412.0301      148.25181      158.65765      61.710545    
     99500  -6448.0327      35.292173     -6412.7405      148.1986       158.64579      61.731156    
     99600  -6449.9591      35.62292      -6414.3362      148.14107      158.63469      61.751768    
     99700  -6450.2126      35.230959     -6414.9817      148.08692      158.6235       61.772379    
     99800  -6450.1047      36.103447     -6414.0013      148.0289       158.60561      61.792991    
     99900  -6447.7042      35.562486     -6412.1418      147.97034      158.59287      61.813602    
    100000  -6447.1713      36.254168     -6410.9171      147.90935      158.57288      61.834214    
Loop time of 784.943 on 12 procs for 100000 steps with 920 atoms

Performance: 11.007 ns/day, 2.180 hours/ns, 127.398 timesteps/s, 117.206 katom-step/s
98.8% CPU use with 12 MPI tasks x 1 OpenMP threads

MPI task timing breakdown:
Section |  min time  |  avg time  |  max time  |%varavg| %total
---------------------------------------------------------------
Pair    | 0.041834   | 123.8      | 767.42     |2487.4 | 15.77
Neigh   | 0.0014788  | 0.30782    | 1.8866     | 123.4 |  0.04
Comm    | 0.04274    | 4.6797     | 53.132     | 675.9 |  0.60
Output  | 0.18598    | 0.19472    | 0.20705    |   1.5 |  0.02
Modify  | 12.266     | 654.49     | 783.01     |1122.4 | 83.38
Other   |            | 1.471      |            |       |  0.19

Nlocal:        76.6667 ave         461 max           0 min
Histogram: 10 0 0 0 0 0 0 0 0 2
Nghost:        99.3333 ave         597 max           0 min
Histogram: 10 0 0 0 0 0 0 0 0 2
Neighs:              0 ave           0 max           0 min
Histogram: 12 0 0 0 0 0 0 0 0 0

Total # of neighbors = 0
Ave neighs/atom = 0
Neighbor list builds = 326
Dangerous builds = 0
Total wall time: 0:13:05
