LAMMPS (2 Aug 2023 - Update 3)
OMP_NUM_THREADS environment is not set. Defaulting to 1 thread. (src/comm.cpp:98)
  using 1 OpenMP thread(s) per MPI task
Reading data file ...
  orthogonal box = (-100 -100 -2.3312511) to (100 100 38.891558)
  3 by 4 by 1 MPI processor grid
  reading atoms ...
  784 atoms
  read_data CPU = 0.084 seconds
Replication is creating a 1x1x7 = 7 times larger system...
  orthogonal box = (-100 -100 -2.3312511) to (100 100 286.22841)
  2 by 2 by 3 MPI processor grid
  5488 atoms
  replicate CPU = 0.086 seconds
System init for write_data ...
WARNING: Communication cutoff is 0.0. No ghost atoms will be generated. Atoms may get lost. (src/comm_brick.cpp:210)
Reading airebo potential file CH.airebo with DATE: 2011-10-25
Reading airebo potential file CH.airebo with DATE: 2011-10-25
Neighbor list info ...
  update: every = 1 steps, delay = 0 steps, check = yes
  max neighbors/atom: 2000, page size: 100000
  master list distance cutoff = 13.2
  ghost atom cutoff = 13.2
  binsize = 6.6, bins = 31 31 44
  5 neighbor lists, perpetual/occasional/extra = 5 0 0
  (1) pair airebo, perpetual, skip from (4)
      attributes: full, newton on, ghost
      pair build: skip/ghost
      stencil: none
      bin: none
  (2) pair airebo, perpetual, skip from (4)
      attributes: full, newton on, ghost
      pair build: skip/ghost
      stencil: none
      bin: none
  (3) pair lj/cut, perpetual, skip from (5)
      attributes: half, newton on, cut 13
      pair build: skip
      stencil: none
      bin: none
  (4) neighbor class addition, perpetual
      attributes: full, newton on, ghost
      pair build: full/bin/ghost
      stencil: full/ghost/bin/3d
      bin: standard
  (5) neighbor class addition, perpetual
      attributes: half, newton on, cut 13
      pair build: half/bin/atomonly/newton
      stencil: half/bin/3d
      bin: standard
Setting up sd style minimization ...
  Unit style    : metal
  Current step  : 0
Per MPI rank memory allocation (min/avg/max) = 9.743 | 9.935 | 10.13 Mbytes
   Step          Temp          E_pair         E_mol          TotEng         Press     
         0   0             -29144.828      0             -29144.828      6493.3023    
        22   0             -38767.787      0             -38767.787      191.11314    
Loop time of 2.68786 on 12 procs for 22 steps with 5488 atoms

72.9% CPU use with 12 MPI tasks x 1 OpenMP threads

Minimization stats:
  Stopping criterion = energy tolerance
  Energy initial, next-to-last, final = 
     -29144.8282817955  -38764.7899454117  -38767.7868275135
  Force two-norm initial, final = 2671.4864 23.250097
  Force max component initial, final = 135.10344 1.8602613
  Final line search alpha, max atom move = 0.048367349 0.089975905
  Iterations, force evaluations = 22 39

MPI task timing breakdown:
Section |  min time  |  avg time  |  max time  |%varavg| %total
---------------------------------------------------------------
Pair    | 0.26212    | 0.32722    | 0.41059    |   7.7 | 12.17
Neigh   | 0          | 0          | 0          |   0.0 |  0.00
Comm    | 0.67278    | 0.81216    | 0.92971    |   8.2 | 30.22
Output  | 0          | 0          | 0          |   0.0 |  0.00
Modify  | 0          | 0          | 0          |   0.0 |  0.00
Other   |            | 1.548      |            |       | 57.61

Nlocal:        457.333 ave         498 max         417 min
Histogram: 3 0 0 0 3 3 0 0 0 3
Nghost:           1872 ave        1917 max        1826 min
Histogram: 2 1 0 0 3 3 0 0 1 2
Neighs:              0 ave           0 max           0 min
Histogram: 12 0 0 0 0 0 0 0 0 0

Total # of neighbors = 0
Ave neighs/atom = 0
Neighbor list builds = 0
Dangerous builds = 0
Setting up Verlet run ...
  Unit style    : metal
  Current step  : 22
  Time step     : 0.001
Per MPI rank memory allocation (min/avg/max) = 10.37 | 10.56 | 10.75 Mbytes
   Step          Temp          E_pair         E_mol          TotEng         Press          Volume    
        22   300           -38767.787      0             -38555.012      210.80308      11542387     
Loop time of 3.09327e-05 on 12 procs for 0 steps with 5488 atoms

87.3% CPU use with 12 MPI tasks x 1 OpenMP threads

MPI task timing breakdown:
Section |  min time  |  avg time  |  max time  |%varavg| %total
---------------------------------------------------------------
Pair    | 0          | 0          | 0          |   0.0 |  0.00
Neigh   | 0          | 0          | 0          |   0.0 |  0.00
Comm    | 0          | 0          | 0          |   0.0 |  0.00
Output  | 0          | 0          | 0          |   0.0 |  0.00
Modify  | 0          | 0          | 0          |   0.0 |  0.00
Other   |            | 3.093e-05  |            |       |100.00

Nlocal:        457.333 ave         461 max         452 min
Histogram: 1 0 0 3 1 1 1 2 1 2
Nghost:           1874 ave        1881 max        1867 min
Histogram: 1 1 3 0 1 2 0 2 0 2
Neighs:              0 ave           0 max           0 min
Histogram: 12 0 0 0 0 0 0 0 0 0

Total # of neighbors = 0
Ave neighs/atom = 0
Neighbor list builds = 0
Dangerous builds = 0
WARNING: New thermo_style command, previous thermo_modify settings will be lost (src/output.cpp:903)
WARNING: Dump 2 includes no atom IDs and is not sorted by ID. This may complicate post-processing tasks or visualization (src/dump.cpp:221)
Setting up Verlet run ...
  Unit style    : metal
  Current step  : 0
  Time step     : 0.001
Per MPI rank memory allocation (min/avg/max) = 11.87 | 12.06 | 12.25 Mbytes
   Step         PotEng         KinEng         TotEng           Lx             Ly             Lz      
         0  -38767.787      212.77512     -38555.012      200            200            288.55966    
       100  -38688.3        151.35763     -38536.942      200.01873      200.0228       288.70394    
       200  -38673.098      161.71882     -38511.379      200.02439      200.0274       288.84822    
       300  -38674.208      190.3937      -38483.814      200.00428      199.99854      288.9925     
       400  -38660.439      202.68707     -38457.752      200.016        200.01515      289.13678    
       500  -38634.272      200.92813     -38433.344      200.02383      200.02833      289.28106    
       600  -38590.104      180.98038     -38409.124      200.00669      200.00238      289.42534    
       700  -38599.599      215.00448     -38384.595      200.0162       200.01555      289.56962    
       800  -38573.16       207.69705     -38365.463      200.01769      200.02468      289.7139     
       900  -38571.905      216.05567     -38355.849      199.99942      199.99693      289.85818    
      1000  -38604.959      237.77399     -38367.185      200.0151       200.0129       290.00246    
      1100  -38608.122      217.87952     -38390.242      200.01274      200.01928      290.14674    
      1200  -38611.51       204.53795     -38406.972      199.99102      199.98998      290.29102    
      1300  -38632.242      218.28346     -38413.958      200.00828      200.00459      290.4353     
      1400  -38599.869      196.4466      -38403.423      200.00992      200.01714      290.57958    
      1500  -38585.527      201.98682     -38383.54       199.98473      199.98865      290.72386    
      1600  -38594.848      228.36501     -38366.483      200.00248      199.99978      290.86814    
      1700  -38574.859      214.19612     -38360.663      200.0082       200.01212      291.01242    
      1800  -38585.815      216.25038     -38369.564      199.98086      199.98585      291.1567     
      1900  -38602.919      219.97567     -38382.943      199.99575      199.99362      291.30098    
      2000  -38592.227      202.83077     -38389.396      200.0009       200.00151      291.44526    
      2100  -38586.373      203.75271     -38382.62       199.97665      199.9828       291.58954    
      2200  -38592.329      224.12518     -38368.204      199.98896      199.9898       291.73382    
      2300  -38576.122      216.50924     -38359.613      199.99349      199.99271      291.8781     
      2400  -38578.298      215.04505     -38363.253      199.96956      199.97541      292.02238    
      2500  -38590.641      217.08334     -38373.558      199.98179      199.98617      292.16666    
      2600  -38579.062      200.21005     -38378.852      199.98702      199.9863       292.31094    
      2700  -38576.782      206.61832     -38370.164      199.96376      199.96771      292.45522    
      2800  -38574.32       220.80231     -38353.518      199.97297      199.97846      292.5995     
      2900  -38558.148      215.29149     -38342.857      199.98026      199.98001      292.74378    
      3000  -38565.886      221.00303     -38344.883      199.95864      199.9608       292.88806    
      3100  -38575.037      218.45918     -38356.578      199.96503      199.97086      293.03234    
      3200  -38571.64       206.75555     -38364.885      199.96955      199.96986      293.17662    
      3300  -38569.313      205.82799     -38363.485      199.95184      199.95246      293.3209     
      3400  -38568.671      216.48112     -38352.19       199.95656      199.96239      293.46518    
      3500  -38551.824      211.48625     -38340.338      199.95873      199.96124      293.60946    
      3600  -38552.242      217.83759     -38334.404      199.94307      199.94273      293.75374    
      3700  -38554.367      217.42722     -38336.94       199.94856      199.9535       293.89802    
      3800  -38554.03       212.506       -38341.524      199.94779      199.95163      294.0423     
      3900  -38551.385      209.66936     -38341.716      199.93314      199.93203      294.18658    
      4000  -38552.181      214.52891     -38337.653      199.93901      199.94069      294.33086    
      4100  -38543.056      210.61256     -38332.443      199.93654      199.94108      294.47514    
      4200  -38538.145      210.13823     -38328.007      199.92254      199.92159      294.61942    
      4300  -38539.877      213.93012     -38325.947      199.92852      199.92875      294.7637     
      4400  -38533.858      209.35083     -38324.507      199.92349      199.92983      294.90798    
      4500  -38530.632      210.38159     -38320.25       199.91086      199.91108      295.05226    
      4600  -38532.447      218.42695     -38314.02       199.91792      199.9163       295.19654    
      4700  -38524.906      214.29068     -38310.616      199.91081      199.91576      295.34082    
      4800  -38524.249      212.28035     -38311.968      199.89801      199.89899      295.4851     
      4900  -38526.074      212.6476      -38313.427      199.90579      199.90407      295.62938    
      5000  -38523.982      212.92022     -38311.062      199.89753      199.90212      295.77366    
      5100  -38513.948      208.52744     -38305.42       199.8853       199.88657      295.91794    
      5200  -38512.469      214.39013     -38298.079      199.89213      199.89082      296.06222    
      5300  -38506.555      215.20354     -38291.351      199.88314      199.887        296.2065     
      5400  -38503.644      215.44175     -38288.202      199.8711       199.87439      296.35078    
      5500  -38502.778      213.3168      -38289.461      199.87729      199.87665      296.49506    
      5600  -38502.227      212.14307     -38290.084      199.86848      199.87063      296.63934    
      5700  -38496.399      211.01569     -38285.383      199.85715      199.86037      296.78361    
      5800  -38492.493      215.03692     -38277.456      199.86289      199.86197      296.92789    
      5900  -38492.186      218.84703     -38273.339      199.85226      199.85379      297.07217    
      6000  -38488.676      214.18446     -38274.492      199.84147      199.84562      297.21645    
      6100  -38485.202      211.75605     -38273.446      199.84628      199.84626      297.36073    
      6200  -38480.751      213.19819     -38267.553      199.835        199.8361       297.50501    
      6300  -38471.92       212.26163     -38259.658      199.82531      199.83022      297.64929    
      6400  -38469.478      214.36802     -38255.11       199.82839      199.83095      297.79357    
      6500  -38471.371      216.29531     -38255.075      199.81699      199.81773      297.93785    
      6600  -38468.513      213.48617     -38255.027      199.80799      199.81339      298.08213    
      6700  -38456.901      205.54099     -38251.36       199.80852      199.81387      298.22641    
      6800  -38455.909      213.18511     -38242.724      199.79842      199.79918      298.37069    
      6900  -38449.403      213.12887     -38236.274      199.79149      199.79525      298.51497    
      7000  -38444.447      211.43399     -38233.013      199.78813      199.79506      298.65925    
      7100  -38449.218      215.35056     -38233.867      199.77769      199.77997      298.80353    
      7200  -38442.734      210.31308     -38232.421      199.77391      199.77532      298.94781    
      7300  -38435.838      208.6012      -38227.237      199.76788      199.77387      299.09209    
      7400  -38430.817      212.18731     -38218.63       199.7559       199.76023      299.23637    
      7500  -38426.705      214.95859     -38211.747      199.75316      199.75604      299.38065    
      7600  -38423.079      215.16095     -38207.918      199.74632      199.75147      299.52493    
      7700  -38419.571      212.35976     -38207.211      199.73342      199.73941      299.66921    
      7800  -38419.677      212.7113      -38206.966      199.731        199.73475      299.81349    
      7900  -38413.765      210.26485     -38203.5        199.72384      199.72642      299.95777    
      8000  -38412.845      214.22416     -38198.621      199.71065      199.71647      300.10205    
      8100  -38403.877      211.9374      -38191.94       199.70702      199.71287      300.24633    
      8200  -38393.836      212.08404     -38181.752      199.70096      199.70092      300.39061    
      8300  -38394.779      218.52143     -38176.257      199.68821      199.69195      300.53489    
      8400  -38388.84       213.70406     -38175.136      199.68211      199.6891       300.67917    
      8500  -38385.917      211.65433     -38174.262      199.67448      199.67639      300.82345    
      8600  -38382.894      212.12936     -38170.764      199.66396      199.66683      300.96773    
      8700  -38378.528      213.13102     -38165.397      199.65657      199.66354      301.11201    
      8800  -38370.058      209.8188      -38160.239      199.64707      199.65118      301.25629    
      8900  -38369.999      213.7984      -38156.201      199.63852      199.6403       301.40057    
      9000  -38363.404      210.86788     -38152.536      199.63015      199.63568      301.54485    
      9100  -38358.777      211.90629     -38146.871      199.61878      199.62471      301.68913    
      9200  -38347.739      211.396       -38136.343      199.61059      199.61319      301.83341    
      9300  -38348.052      216.66567     -38131.387      199.60257      199.60611      301.97769    
      9400  -38348.699      216.71275     -38131.986      199.59041      199.59586      302.12197    
      9500  -38346.697      216.19685     -38130.5        199.58057      199.58544      302.26625    
      9600  -38335.822      209.44473     -38126.377      199.57294      199.57734      302.41053    
      9700  -38329.525      212.32197     -38117.203      199.56098      199.56681      302.55481    
      9800  -38326.632      217.41599     -38109.216      199.55033      199.55549      302.69909    
      9900  -38319.779      213.96737     -38105.811      199.54251      199.54778      302.84337    
     10000  -38321.371      216.4519      -38104.919      199.52889      199.53622      302.98765    
     10100  -38314.155      212.10814     -38102.047      199.51851      199.52551      303.13193    
     10200  -38304.714      208.32731     -38096.387      199.51151      199.51628      303.27621    
     10300  -38304.872      216.98879     -38087.883      199.49685      199.5033       303.42049    
     10400  -38294.405      213.80699     -38080.598      199.48502      199.4943       303.56477    
     10500  -38292.769      216.3098      -38076.459      199.47684      199.48402      303.70905    
     10600  -38285.217      211.82934     -38073.388      199.46341      199.46959      303.85333    
     10700  -38283.598      213.37896     -38070.219      199.45175      199.46125      303.99761    
     10800  -38276.232      211.30744     -38064.924      199.4411       199.45006      304.14189    
     10900  -38271.842      216.32646     -38055.516      199.42754      199.43512      304.28617    
     11000  -38264.954      217.77366     -38047.18       199.41628      199.42608      304.43045    
     11100  -38263.457      218.02932     -38045.428      199.40517      199.41306      304.57473    
     11200  -38257.433      214.20898     -38043.224      199.39057      199.39878      304.71901    
     11300  -38250.874      211.30943     -38039.564      199.37795      199.38999      304.86329    
     11400  -38246.07       212.82319     -38033.247      199.36562      199.37655      305.00757    
     11500  -38240.088      216.99012     -38023.098      199.35327      199.36046      305.15185    
     11600  -38231.939      216.28586     -38015.654      199.34052      199.35009      305.29613    
     11700  -38226.685      213.70485     -38012.98       199.32483      199.337        305.4404     
     11800  -38222.527      212.43034     -38010.097      199.31115      199.32157      305.58468    
     11900  -38216.608      211.18047     -38005.427      199.29913      199.3097       305.72896    
     12000  -38213.568      212.9715      -38000.597      199.28419      199.29491      305.87324    
     12100  -38209.86       214.58245     -37995.278      199.27019      199.27914      306.01752    
     12200  -38203.879      213.08867     -37990.79       199.25612      199.26759      306.1618     
     12300  -38195.538      208.78549     -37986.752      199.23936      199.25235      306.30608    
     12400  -38188.753      210.83729     -37977.916      199.22648      199.23629      306.45036    
     12500  -38182.727      215.22501     -37967.502      199.2125       199.2226       306.59464    
     12600  -38178.364      215.8023      -37962.561      199.19409      199.20681      306.73892    
     12700  -38175.443      213.64297     -37961.8        199.17968      199.19189      306.8832     
     12800  -38169.643      211.44932     -37958.194      199.16433      199.17669      307.02748    
     12900  -38163.59       213.13052     -37950.46       199.14745      199.15952      307.17176    
     13000  -38154.47       213.82851     -37940.642      199.133        199.14351      307.31604    
     13100  -38150.254      215.62935     -37934.624      199.11597      199.12724      307.46032    
     13200  -38144.401      213.2518      -37931.149      199.09712      199.11163      307.6046     
     13300  -38140.374      212.45322     -37927.921      199.08127      199.09551      307.74888    
     13400  -38132.121      209.61901     -37922.502      199.06542      199.0771       307.89316    
     13500  -38122.748      208.72141     -37914.026      199.04688      199.06         308.03744    
     13600  -38116.41       209.6987      -37906.712      199.02912      199.04446      308.18172    
     13700  -38113.2        211.82716     -37901.373      199.01127      199.02547      308.326      
     13800  -38109.08       211.07198     -37898.008      198.99181      199.00797      308.47028    
     13900  -38103.586      210.99542     -37892.591      198.97445      198.99002      308.61456    
     14000  -38096.493      216.84341     -37879.65       198.95694      198.9696       308.75884    
     14100  -38091.778      219.54349     -37872.234      198.93532      198.95253      308.90312    
     14200  -38085.879      214.09836     -37871.781      198.91532      198.93459      309.0474     
     14300  -38080.097      211.85036     -37868.247      198.89657      198.91336      309.19168    
     14400  -38069.799      210.43723     -37859.362      198.87676      198.89363      309.33596    
     14500  -38060.296      211.30517     -37848.991      198.8562       198.87383      309.48024    
     14600  -38058.154      213.66145     -37844.492      198.83488      198.85342      309.62452    
     14700  -38056.016      213.38363     -37842.633      198.81173      198.83358      309.7688     
     14800  -38047.689      210.05243     -37837.637      198.79156      198.8123       309.91308    
     14900  -38035.387      207.18145     -37828.206      198.77131      198.78892      310.05736    
     15000  -38031.139      213.22942     -37817.909      198.74781      198.7677       310.20164    
     15100  -38028.105      215.80115     -37812.304      198.72518      198.74642      310.34592    
     15200  -38023.113      213.01174     -37810.101      198.70176      198.72264      310.4902     
     15300  -38018.009      212.31875     -37805.69       198.67746      198.69979      310.63448    
     15400  -38004.412      205.7387      -37798.673      198.65433      198.67719      310.77876    
     15500  -38000.313      212.77237     -37787.541      198.62971      198.65147      310.92304    
     15600  -37994.92       214.6725      -37780.248      198.60596      198.62705      311.06732    
     15700  -37992.286      215.4388      -37776.847      198.57994      198.60327      311.2116     
     15800  -37987.484      213.8551      -37773.629      198.55208      198.57762      311.35588    
     15900  -37979.017      211.89865     -37767.119      198.52807      198.55253      311.50016    
     16000  -37970.053      215.0309      -37755.022      198.50193      198.52428      311.64444    
     16100  -37963.032      217.22022     -37745.811      198.4742       198.49753      311.78872    
     16200  -37954.887      213.57812     -37741.309      198.44595      198.47278      311.933      
     16300  -37948.555      210.20496     -37738.35       198.41678      198.44377      312.07728    
     16400  -37942.759      209.89879     -37732.86       198.38897      198.41576      312.22156    
     16500  -37938.912      215.00245     -37723.909      198.3594       198.3873       312.36584    
     16600  -37927.164      213.78223     -37713.382      198.33023      198.3558       312.51012    
     16700  -37920.417      218.0475      -37702.37       198.30016      198.3279       312.6544     
     16800  -37911.566      211.83973     -37699.726      198.26701      198.29975      312.79868    
     16900  -37908.196      212.43635     -37695.76       198.23622      198.26664      312.94296    
     17000  -37899.22       211.13102     -37688.089      198.2064       198.23534      313.08724    
     17100  -37896.325      215.90549     -37680.42       198.1718       198.2043       313.23152    
     17200  -37888.962      211.15346     -37677.809      198.13751      198.17032      313.3758     
     17300  -37888.016      212.01048     -37676.005      198.10559      198.13811      313.52008    
     17400  -37874.984      208.36594     -37666.618      198.06893      198.1047       313.66436    
     17500  -37862.789      208.71251     -37654.076      198.03373      198.06874      313.80864    
     17600  -37856.854      212.43803     -37644.416      198.00056      198.03358      313.95292    
     17700  -37850.665      213.0651      -37637.6        197.96053      197.99845      314.09719    
     17800  -37851.277      215.13729     -37636.14       197.92253      197.96243      314.24147    
     17900  -37841.284      209.93554     -37631.348      197.88724      197.92398      314.38575    
     18000  -37834.028      211.98357     -37622.044      197.84616      197.88513      314.53003    
     18100  -37821.548      210.72419     -37610.824      197.80713      197.84747      314.67431    
     18200  -37818.775      216.43127     -37602.344      197.76802      197.80707      314.81859    
     18300  -37812.236      214.37444     -37597.862      197.72454      197.76648      314.96287    
     18400  -37808.98       214.47042     -37594.509      197.68193      197.7277       315.10715    
     18500  -37797.85       211.29492     -37586.555      197.64101      197.68398      315.25143    
     18600  -37789.784      213.89669     -37575.888      197.59832      197.6389       315.39571    
     18700  -37781.497      214.96135     -37566.536      197.55252      197.59776      315.53999    
     18800  -37776.861      216.92199     -37559.94       197.50618      197.55416      315.68427    
     18900  -37768.538      212.67035     -37555.868      197.46122      197.50674      315.82855    
     19000  -37764.351      212.78298     -37551.568      197.41484      197.46145      315.97283    
     19100  -37751.261      209.67699     -37541.584      197.36603      197.41554      316.11711    
     19200  -37740.673      213.72273     -37526.951      197.31755      197.36694      316.26139    
     19300  -37740.096      218.01863     -37522.077      197.26813      197.31905      316.40567    
     19400  -37733.872      214.75326     -37519.119      197.21781      197.27006      316.54995    
     19500  -37729.034      215.81583     -37513.218      197.16726      197.21892      316.69423    
     19600  -37718.948      214.44611     -37504.501      197.11646      197.16836      316.83851    
     19700  -37706.523      213.23731     -37493.286      197.06374      197.11721      316.98279    
     19800  -37698.872      216.10995     -37482.762      197.00875      197.06596      317.12707    
     19900  -37687.785      213.38875     -37474.397      196.95629      197.01345      317.27135    
     20000  -37683.094      213.05992     -37470.034      196.90359      196.95673      317.41563    
     20100  -37677.961      210.50643     -37467.455      196.84623      196.90376      317.55991    
     20200  -37673.975      211.819       -37462.156      196.78936      196.85142      317.70419    
     20300  -37663.204      209.18127     -37454.023      196.73304      196.7933       317.84847    
     20400  -37650.112      210.56877     -37439.543      196.67671      196.73731      317.99275    
     20500  -37645.091      215.13812     -37429.953      196.61862      196.68146      318.13703    
     20600  -37637.067      213.5982      -37423.469      196.55925      196.62283      318.28131    
     20700  -37634.875      214.09702     -37420.778      196.49983      196.56676      318.42559    
     20800  -37626.834      210.94774     -37415.886      196.43989      196.50852      318.56987    
     20900  -37617.254      210.47283     -37406.781      196.38124      196.4469       318.71415    
     21000  -37604.095      208.73731     -37395.358      196.32227      196.38855      318.85843    
     21100  -37597.335      211.73424     -37385.601      196.25898      196.33055      319.00271    
     21200  -37593.959      215.6056      -37378.354      196.19698      196.27077      319.14699    
     21300  -37586.582      212.11629     -37374.465      196.13733      196.20981      319.29127    
     21400  -37580.121      211.17779     -37368.944      196.07552      196.14856      319.43555    
     21500  -37570.792      211.33039     -37359.462      196.01305      196.08839      319.57983    
     21600  -37560.776      211.19        -37349.586      195.95211      196.02817      319.72411    
     21700  -37554.854      213.88271     -37340.971      195.88868      195.96705      319.86839    
     21800  -37548.25       212.58811     -37335.662      195.8256       195.90731      320.01267    
     21900  -37542.699      210.97331     -37331.726      195.76625      195.84504      320.15695    
     22000  -37533.195      207.17098     -37326.024      195.70395      195.78199      320.30123    
     22100  -37524.037      211.86134     -37312.175      195.64077      195.72425      320.44551    
     22200  -37513.377      213.2525      -37300.124      195.57955      195.66448      320.58979    
     22300  -37505.339      212.90754     -37292.432      195.51861      195.60137      320.73407    
     22400  -37501.257      212.74516     -37288.512      195.45861      195.54241      320.87835    
     22500  -37493.396      211.19729     -37282.199      195.39802      195.48265      321.02263    
     22600  -37481.615      212.0331      -37269.582      195.33785      195.42233      321.16691    
     22700  -37473.214      215.37479     -37257.839      195.2786       195.36583      321.31119    
     22800  -37466.647      214.56877     -37252.078      195.21823      195.30772      321.45547    
     22900  -37459.16       211.42677     -37247.733      195.1606       195.24886      321.59975    
     23000  -37449.744      208.44622     -37241.298      195.10358      195.19282      321.74403    
     23100  -37442.113      212.16988     -37229.943      195.0445       195.13704      321.88831    
     23200  -37433.78       217.00904     -37216.771      194.9894       195.08075      322.03259    
     23300  -37426.019      215.71427     -37210.305      194.93453      195.02657      322.17687    
     23400  -37419.478      214.04383     -37205.434      194.87884      194.97291      322.32115    
     23500  -37410.208      211.50128     -37198.707      194.82455      194.91933      322.46543    
     23600  -37404.041      213.8622      -37190.179      194.77249      194.86707      322.6097     
     23700  -37391.648      213.53246     -37178.116      194.71844      194.81684      322.75398    
     23800  -37385.996      218.60222     -37167.394      194.6668       194.76595      322.89826    
     23900  -37375.351      213.9871      -37161.364      194.61959      194.71525      323.04254    
     24000  -37372.139      213.17168     -37158.967      194.56761      194.66596      323.18682    
     24100  -37363.01       211.35523     -37151.654      194.51744      194.61998      323.3311     
     24200  -37352.617      210.94378     -37141.673      194.47149      194.57331      323.47538    
     24300  -37345.283      214.3396      -37130.943      194.42307      194.52556      323.61966    
     24400  -37337.304      216.28898     -37121.015      194.37897      194.48161      323.76394    
     24500  -37326.623      215.77027     -37110.853      194.33641      194.43562      323.90822    
     24600  -37319.734      214.73366     -37105.001      194.28974      194.39298      324.0525     
     24700  -37308.298      208.15582     -37100.142      194.24593      194.35394      324.19678    
     24800  -37302.06       209.85482     -37092.206      194.2044       194.3106       324.34106    
     24900  -37293.411      212.87011     -37080.541      194.16312      194.26936      324.48534    
     25000  -37284.041      216.38398     -37067.657      194.12431      194.23058      324.62962    
     25100  -37274.355      215.0699      -37059.285      194.08576      194.1902       324.7739     
     25200  -37267.756      210.31723     -37057.439      194.0464       194.15347      324.91818    
     25300  -37267.073      216.17595     -37050.897      194.00693      194.11911      325.06246    
     25400  -37255.112      214.10421     -37041.008      193.97083      194.08181      325.20674    
     25500  -37243.771      212.73855     -37031.032      193.93664      194.04575      325.35102    
     25600  -37234.149      215.08249     -37019.066      193.9022       194.01168      325.4953     
     25700  -37221.512      215.57844     -37005.933      193.86838      193.97748      325.63958    
     25800  -37212.319      212.60937     -36999.71       193.83502      193.94509      325.78386    
     25900  -37209.203      213.25111     -36995.952      193.80122      193.91601      325.92814    
     26000  -37201.704      213.63688     -36988.067      193.76956      193.88354      326.07242    
     26100  -37191.636      212.63312     -36979.003      193.74059      193.85192      326.2167     
     26200  -37181.109      213.32411     -36967.785      193.71073      193.82356      326.36098    
     26300  -37171.495      216.95723     -36954.537      193.67968      193.79377      326.50526    
     26400  -37160.652      213.78383     -36946.868      193.65136      193.7674       326.64954    
     26500  -37153.807      209.04115     -36944.766      193.6221       193.74073      326.79382    
     26600  -37144.292      207.58238     -36936.71       193.59526      193.71182      326.9381     
     26700  -37139.828      212.62316     -36927.205      193.57135      193.68539      327.08238    
     26800  -37129.176      211.45369     -36917.722      193.54235      193.65999      327.22666    
     26900  -37123.857      215.16041     -36908.697      193.51587      193.63615      327.37094    
     27000  -37114.487      215.10984     -36899.377      193.49221      193.61184      327.51522    
     27100  -37103.255      211.58231     -36891.672      193.466        193.58711      327.6595     
     27200  -37101.534      215.68933     -36885.844      193.44337      193.56333      327.80378    
     27300  -37089.302      208.80241     -36880.499      193.42018      193.53998      327.94806    
     27400  -37079.314      211.53918     -36867.775      193.39515      193.51887      328.09234    
     27500  -37068.487      213.81192     -36854.675      193.37322      193.49619      328.23662    
     27600  -37058.822      213.8699      -36844.952      193.35102      193.47368      328.3809     
     27700  -37050.661      213.46825     -36837.193      193.32773      193.45324      328.52518    
     27800  -37042.609      210.3274      -36832.282      193.30789      193.43083      328.66946    
     27900  -37031.942      206.12637     -36825.816      193.28787      193.40891      328.81374    
     28000  -37023.982      211.97884     -36812.003      193.26482      193.38959      328.95802    
     28100  -37011.739      213.05323     -36798.686      193.24527      193.37013      329.1023     
     28200  -37003.193      213.01744     -36790.176      193.22431      193.34986      329.24658    
     28300  -36995.263      210.03258     -36785.231      193.20377      193.32991      329.39086    
     28400  -36990.452      211.58617     -36778.866      193.18789      193.30832      329.53514    
     28500  -36980.576      209.46155     -36771.114      193.16784      193.28775      329.67942    
     28600  -36971.8        212.56399     -36759.236      193.14676      193.2723       329.8237     
     28700  -36962.413      217.73249     -36744.681      193.12831      193.25456      329.96798    
     28800  -36954.112      218.27331     -36735.839      193.10862      193.23496      330.11226    
     28900  -36942.578      211.10287     -36731.475      193.09101      193.21909      330.25654    
     29000  -36935.481      211.4127      -36724.069      193.07397      193.19871      330.40082    
     29100  -36926.845      214.01971     -36712.825      193.05669      193.17957      330.5451     
     29200  -36917.655      217.59978     -36700.056      193.03897      193.16366      330.68938    
     29300  -36905.858      219.91246     -36685.945      193.02054      193.14597      330.83366    
     29400  -36894.022      216.09549     -36677.926      193.00309      193.12983      330.97794    
     29500  -36887.532      212.82564     -36674.706      192.98453      193.11504      331.12222    
     29600  -36884.601      216.80953     -36667.791      192.96816      193.09605      331.26649    
     29700  -36871.538      210.32814     -36661.21       192.95395      193.07654      331.41077    
     29800  -36865.454      212.47959     -36652.974      192.93708      193.06139      331.55505    
     29900  -36852.571      213.99755     -36638.573      192.91844      193.0452       331.69933    
     30000  -36840.543      215.10069     -36625.443      192.90158      193.02957      331.84361    
     30100  -36829.196      210.70999     -36618.487      192.88456      193.01596      331.98789    
     30200  -36828.064      214.13013     -36613.934      192.86753      192.99707      332.13217    
     30300  -36817.814      211.76473     -36606.05       192.85416      192.98044      332.27645    
     30400  -36806.859      211.70494     -36595.154      192.8377       192.96522      332.42073    
     30500  -36794.986      213.15123     -36581.835      192.82007      192.94738      332.56501    
     30600  -36788.894      216.6527      -36572.241      192.80621      192.93277      332.70929    
     30700  -36780.927      215.4486      -36565.479      192.78756      192.91772      332.85357    
     30800  -36771.544      214.98785     -36556.556      192.77076      192.90164      332.99785    
     30900  -36761.18       214.10592     -36547.074      192.75673      192.88609      333.14213    
     31000  -36751.414      214.05428     -36537.36       192.73917      192.86923      333.28641    
     31100  -36742.325      214.99346     -36527.331      192.72493      192.8517       333.43069    
     31200  -36732.187      212.29517     -36519.892      192.71026      192.83583      333.57497    
     31300  -36727.747      213.30403     -36514.443      192.69152      192.82093      333.71925    
     31400  -36716.828      210.58993     -36506.238      192.67595      192.80518      333.86353    
     31500  -36702.255      211.07333     -36491.182      192.66084      192.79018      334.00781    
     31600  -36690.063      211.47805     -36478.585      192.64416      192.77351      334.15209    
     31700  -36683.005      212.15484     -36470.85       192.6297       192.75696      334.29637    
     31800  -36676.785      211.84966     -36464.936      192.6138       192.74197      334.44065    
     31900  -36669.18       210.3451      -36458.835      192.59559      192.72627      334.58493    
     32000  -36662.855      212.56036     -36450.295      192.58139      192.71025      334.72921    
     32100  -36645.232      210.61522     -36434.617      192.56633      192.69451      334.87349    
     32200  -36633.166      212.40834     -36420.758      192.54924      192.67802      335.01777    
     32300  -36625.574      213.68524     -36411.889      192.53508      192.66292      335.16205    
     32400  -36619.559      212.21133     -36407.348      192.51777      192.647        335.30633    
     32500  -36612.176      211.58165     -36400.595      192.50078      192.63158      335.45061    
     32600  -36601.238      210.22258     -36391.016      192.4858       192.61672      335.59489    
     32700  -36591.763      214.3973      -36377.366      192.46853      192.60047      335.73917    
     32800  -36581.457      218.50059     -36362.957      192.45293      192.58503      335.88345    
     32900  -36571.033      215.24271     -36355.79       192.4384       192.56888      336.02773    
     33000  -36561.332      211.42928     -36349.903      192.42209      192.55078      336.17201    
     33100  -36553.855      211.56939     -36342.286      192.40652      192.53606      336.31629    
     33200  -36541.887      210.86494     -36331.022      192.38941      192.52097      336.46057    
     33300  -36531.063      216.01564     -36315.047      192.37115      192.50535      336.60485    
     33400  -36522.933      217.2571      -36305.676      192.35501      192.4904       336.74913    
     33500  -36515.693      216.00164     -36299.691      192.33959      192.47275      336.89341    
     33600  -36506.646      213.80156     -36292.844      192.32368      192.45528      337.03769    
     33700  -36496.716      213.23512     -36283.481      192.30891      192.43884      337.18197    
     33800  -36483.798      211.07495     -36272.723      192.2917       192.42129      337.32625    
     33900  -36476.78       214.78921     -36261.99       192.27398      192.40523      337.47053    
     34000  -36465.244      211.51262     -36253.732      192.25802      192.38985      337.61481    
     34100  -36460.928      213.16942     -36247.758      192.23956      192.37224      337.75909    
     34200  -36449.621      210.35203     -36239.269      192.22211      192.3567       337.90337    
     34300  -36441.118      214.9275      -36226.191      192.20598      192.34028      338.04765    
     34400  -36425.837      214.73725     -36211.1        192.18927      192.3211       338.19193    
     34500  -36417.527      215.55477     -36201.972      192.17386      192.30371      338.33621    
     34600  -36409.181      213.11008     -36196.071      192.15677      192.28663      338.48049    
     34700  -36401.693      212.91365     -36188.78       192.13831      192.2689       338.62477    
     34800  -36389.363      210.8582      -36178.505      192.12125      192.25372      338.76905    
     34900  -36381.312      214.18705     -36167.125      192.10229      192.23658      338.91333    
     35000  -36372.16       215.89084     -36156.269      192.08499      192.21833      339.05761    
     35100  -36362.058      212.35635     -36149.701      192.06997      192.20096      339.20189    
     35200  -36352.716      208.76614     -36143.95       192.0504       192.18288      339.34617    
     35300  -36341.576      210.24374     -36131.332      192.03314      192.16544      339.49045    
     35400  -36331.527      214.24433     -36117.282      192.01635      192.14736      339.63473    
     35500  -36319.418      211.03437     -36108.383      191.99747      192.12928      339.779      
     35600  -36314.633      214.58267     -36100.05       191.98008      192.11206      339.92328    
     35700  -36301.284      212.87046     -36088.413      191.96164      192.09466      340.06756    
     35800  -36292.315      219.73526     -36072.58       191.94133      192.07726      340.21184    
     35900  -36278.017      214.007       -36064.01       191.92419      192.05916      340.35612    
     36000  -36268.261      209.87469     -36058.386      191.90684      192.0399       340.5004     
     36100  -36264.402      214.7261      -36049.676      191.88727      192.02075      340.64468    
     36200  -36252.642      212.51709     -36040.124      191.86984      192.00268      340.78896    
     36300  -36242.925      213.31226     -36029.613      191.85113      191.98356      340.93324    
     36400  -36230.314      214.58199     -36015.732      191.8315       191.96424      341.07752    
     36500  -36217.735      214.74018     -36002.995      191.81377      191.94669      341.2218     
     36600  -36210.946      215.1934      -35995.753      191.79283      191.92672      341.36608    
     36700  -36202.591      211.38059     -35991.21       191.7728       191.90879      341.51036    
     36800  -36193.622      211.22014     -35982.402      191.75346      191.89003      341.65464    
     36900  -36184.553      213.11889     -35971.434      191.7336       191.86837      341.79892    
     37000  -36168.038      210.13496     -35957.903      191.71617      191.84924      341.9432     
     37100  -36158.818      216.66898     -35942.149      191.69653      191.82811      342.08748    
     37200  -36151.637      218.60761     -35933.029      191.67672      191.80729      342.23176    
     37300  -36137.263      210.71847     -35926.545      191.65676      191.78881      342.37604    
     37400  -36133.209      213.8448      -35919.364      191.63432      191.76926      342.52032    
     37500  -36124.487      212.24337     -35912.243      191.6138       191.74846      342.6646     
     37600  -36115.171      211.15185     -35904.019      191.59438      191.72894      342.80888    
     37700  -36102.791      211.9039      -35890.887      191.57209      191.70855      342.95316    
     37800  -36089.395      215.29252     -35874.102      191.55279      191.68658      343.09744    
     37900  -36079.024      213.51824     -35865.506      191.53381      191.66583      343.24172    
     38000  -36073.629      213.87555     -35859.753      191.51123      191.64384      343.386      
     38100  -36061.024      210.41669     -35850.607      191.49125      191.6234       343.53028    
     38200  -36052.619      213.20374     -35839.415      191.46948      191.60307      343.67456    
     38300  -36040.545      211.90164     -35828.644      191.44458      191.58216      343.81884    
     38400  -36030.345      211.9666      -35818.379      191.42554      191.56183      343.96312    
     38500  -36023.492      214.23674     -35809.255      191.40339      191.53884      344.1074     
     38600  -36014.119      213.49831     -35800.62       191.38087      191.51754      344.25168    
     38700  -36002.047      212.22639     -35789.821      191.36091      191.4955       344.39596    
     38800  -35988.449      212.88261     -35775.566      191.33875      191.47173      344.54024    
     38900  -35977.761      215.14861     -35762.612      191.31579      191.45136      344.68452    
     39000  -35967.005      211.56284     -35755.442      191.29363      191.42889      344.8288     
     39100  -35963.93       213.26951     -35750.66       191.27049      191.4061       344.97308    
     39200  -35954.148      213.34306     -35740.805      191.24652      191.38543      345.11736    
     39300  -35941.747      212.96603     -35728.781      191.22413      191.36241      345.26164    
     39400  -35927.041      213.31776     -35713.723      191.20067      191.33832      345.40592    
     39500  -35917.243      216.59578     -35700.647      191.17783      191.31597      345.5502     
     39600  -35908.131      215.7391      -35692.392      191.15465      191.29158      345.69448    
     39700  -35897.255      212.71232     -35684.542      191.13094      191.26712      345.83876    
     39800  -35890.882      213.85928     -35677.023      191.10798      191.24424      345.98304    
     39900  -35880.035      211.83484     -35668.201      191.08345      191.21957      346.12732    
     40000  -35867.286      210.55714     -35656.728      191.0597       191.19523      346.2716     
     40100  -35856.693      214.48921     -35642.204      191.03459      191.17253      346.41588    
     40200  -35847.217      216.61231     -35630.605      191.00898      191.14788      346.56016    
     40300  -35840.406      214.90159     -35625.504      190.98401      191.1238       346.70444    
     40400  -35827.787      210.10147     -35617.686      190.9592       191.10029      346.84872    
     40500  -35818.331      212.22208     -35606.109      190.93591      191.07251      346.993      
     40600  -35809.457      216.07104     -35593.386      190.91186      191.04677      347.13728    
     40700  -35795.719      214.75556     -35580.964      190.88657      191.02227      347.28156    
     40800  -35784.91       215.93929     -35568.971      190.86122      190.99557      347.42584    
     40900  -35777.456      215.46773     -35561.989      190.8351       190.97157      347.57012    
     41000  -35766.901      211.30977     -35555.591      190.8073       190.94816      347.7144     
     41100  -35758.348      212.59858     -35545.749      190.78096      190.92151      347.85868    
     41200  -35741.889      209.26575     -35532.623      190.75581      190.89646      348.00296    
     41300  -35734.433      218.26821     -35516.165      190.72837      190.87041      348.14724    
     41400  -35722.103      217.02478     -35505.078      190.70378      190.84222      348.29152    
     41500  -35714.229      216.53806     -35497.691      190.67862      190.81514      348.43579    
     41600  -35703.937      214.83259     -35489.104      190.65088      190.78856      348.58007    
     41700  -35694.985      213.04214     -35481.943      190.62437      190.76133      348.72435    
     41800  -35685.194      211.39304     -35473.801      190.59582      190.73708      348.86863    
     41900  -35673.113      211.55815     -35461.554      190.56705      190.71127      349.01291    
     42000  -35655.021      210.63754     -35444.383      190.5402       190.68281      349.15719    
     42100  -35645.48       211.80311     -35433.677      190.51259      190.65626      349.30147    
     42200  -35640.135      213.85568     -35426.279      190.48438      190.62731      349.44575    
     42300  -35631.744      212.83007     -35418.914      190.45861      190.5975       349.59003    
     42400  -35622.163      213.0327      -35409.131      190.43059      190.57027      349.73431    
     42500  -35607.094      210.15849     -35396.935      190.40147      190.54174      349.87859    
     42600  -35593.623      213.82846     -35379.794      190.37404      190.51309      350.02287    
     42700  -35582.545      216.3786      -35366.167      190.34362      190.48645      350.16715    
     42800  -35576.101      215.77124     -35360.33       190.31339      190.45808      350.31143    
     42900  -35566.152      212.20832     -35353.944      190.28554      190.42864      350.45571    
     43000  -35557.679      212.0534      -35345.625      190.2554       190.40068      350.59999    
     43100  -35548.986      214.35646     -35334.63       190.22622      190.36968      350.74427    
     43200  -35533.965      212.33396     -35321.631      190.19854      190.34019      350.88855    
     43300  -35523.424      215.39977     -35308.024      190.16873      190.31075      351.03283    
     43400  -35514.089      215.65578     -35298.433      190.13955      190.27997      351.17711    
     43500  -35505.246      212.2395      -35293.006      190.10987      190.25084      351.32139    
     43600  -35496.802      213.43549     -35283.367      190.07827      190.22207      351.46567    
     43700  -35484.497      213.74697     -35270.75       190.04784      190.19174      351.60995    
     43800  -35470.857      214.18828     -35256.669      190.01734      190.16239      351.75423    
     43900  -35457.276      215.94648     -35241.33       189.98632      190.13266      351.89851    
     44000  -35448.826      218.49251     -35230.333      189.95678      190.1013       352.04279    
     44100  -35436.813      210.90565     -35225.907      189.92705      190.07057      352.18707    
     44200  -35429.919      212.59183     -35217.327      189.89535      190.03907      352.33135    
     44300  -35419.705      211.71813     -35207.986      189.86617      190.00821      352.47563    
     44400  -35410.303      211.89596     -35198.407      189.83479      189.97683      352.61991    
     44500  -35400.936      212.77609     -35188.159      189.80215      189.94725      352.76419    
     44600  -35386.501      212.90693     -35173.594      189.77081      189.91681      352.90847    
     44700  -35373.614      215.18343     -35158.431      189.73867      189.88572      353.05275    
     44800  -35361.845      213.24725     -35148.598      189.70617      189.85556      353.19703    
     44900  -35355.672      213.02391     -35142.648      189.6752       189.82345      353.34131    
     45000  -35347.088      214.41627     -35132.672      189.6443       189.79016      353.48559    
     45100  -35333.69       213.14396     -35120.547      189.6118       189.75886      353.62987    
     45200  -35323.947      215.37677     -35108.571      189.58151      189.72563      353.77415    
     45300  -35310.644      213.27851     -35097.366      189.54974      189.69296      353.91843    
     45400  -35302.888      213.20042     -35089.688      189.51631      189.66224      354.06271    
     45500  -35292.793      211.12827     -35081.665      189.48463      189.62959      354.20699    
     45600  -35280.787      210.67165     -35070.115      189.45103      189.59771      354.35127    
     45700  -35268.113      214.84981     -35053.263      189.41682      189.56728      354.49555    
     45800  -35255.657      215.60184     -35040.055      189.38477      189.53416      354.63983    
     45900  -35250.339      218.76231     -35031.577      189.35238      189.50087      354.78411    
     46000  -35235.112      211.53828     -35023.574      189.31985      189.46853      354.92839    
     46100  -35226.594      213.13076     -35013.464      189.289        189.43406      355.07267    
     46200  -35213.968      211.88204     -35002.086      189.25748      189.40013      355.21695    
     46300  -35203.447      214.83406     -34988.613      189.22331      189.36801      355.36123    
     46400  -35188.276      214.7438      -34973.532      189.19111      189.33524      355.50551    
     46500  -35179.761      214.13476     -34965.626      189.15645      189.303        355.64979    
     46600  -35171.017      212.18548     -34958.831      189.12257      189.27241      355.79407    
     46700  -35159.087      210.48565     -34948.601      189.08967      189.23899      355.93835    
     46800  -35149.376      212.04874     -34937.327      189.05568      189.20664      356.08263    
     46900  -35137.672      213.05484     -34924.617      189.02453      189.17319      356.22691    
     47000  -35127.723      216.09323     -34911.63       188.99266      189.1378       356.37119    
     47100  -35113.561      212.05678     -34901.504      188.95911      189.10597      356.51547    
     47200  -35103.63       209.29481     -34894.335      188.92626      189.07307      356.65975    
     47300  -35097.187      212.4525      -34884.735      188.89371      189.03914      356.80403    
     47400  -35082.721      210.12616     -34872.595      188.85843      189.00803      356.94831    
     47500  -35068.512      213.56954     -34854.942      188.82587      188.9762       357.09258    
     47600  -35059.751      218.1162      -34841.635      188.79251      188.94181      357.23686    
     47700  -35048.894      215.3767      -34833.517      188.75861      188.91083      357.38114    
     47800  -35037.509      212.67818     -34824.831      188.72646      188.8773       357.52542    
     47900  -35029.833      213.80201     -34816.031      188.69334      188.84288      357.6697     
     48000  -35021.752      215.72472     -34806.028      188.66109      188.81073      357.81398    
     48100  -35007.129      211.73399     -34795.395      188.62831      188.77597      357.95826    
     48200  -34998.392      213.7208      -34784.671      188.59526      188.74441      358.10254    
     48300  -34985.499      211.26705     -34774.231      188.56094      188.71231      358.24682    
     48400  -34974.602      213.03859     -34761.564      188.52968      188.67823      358.3911     
     48500  -34963.417      215.53422     -34747.883      188.49609      188.64604      358.53538    
     48600  -34950.713      214.80117     -34735.912      188.46233      188.6142       358.67966    
     48700  -34939.678      212.28869     -34727.389      188.43112      188.58034      358.82394    
     48800  -34928.294      208.24517     -34720.049      188.39736      188.54868      358.96822    
     48900  -34919.075      210.3018      -34708.774      188.36434      188.51681      359.1125     
     49000  -34906.953      212.67773     -34694.276      188.33275      188.48321      359.25678    
     49100  -34889.838      214.03025     -34675.808      188.30105      188.45175      359.40106    
     49200  -34883.993      219.81753     -34664.176      188.26822      188.41847      359.54534    
     49300  -34871.166      215.28711     -34655.879      188.23739      188.38676      359.68962    
     49400  -34862.757      214.35991     -34648.397      188.20482      188.35525      359.8339     
     49500  -34849.967      210.28548     -34639.681      188.17208      188.32315      359.97818    
     49600  -34842.476      213.1642      -34629.312      188.14134      188.29164      360.12246    
     49700  -34828.005      210.46728     -34617.537      188.10821      188.26072      360.26674    
     49800  -34817.539      213.24175     -34604.297      188.07602      188.23034      360.41102    
     49900  -34803.284      213.33676     -34589.948      188.045        188.19892      360.5553     
     50000  -34789.847      212.09094     -34577.756      188.01392      188.16709      360.69958    
     50100  -34789.799      218.69621     -34571.103      187.98282      188.13558      360.84386    
     50200  -34772.138      210.49391     -34561.644      187.95306      188.10405      360.98814    
     50300  -34763.95       214.37433     -34549.575      187.92224      188.07236      361.13242    
     50400  -34750.251      213.57299     -34536.678      187.89085      188.04284      361.2767     
     50500  -34738.582      213.25077     -34525.331      187.85926      188.01254      361.42098    
     50600  -34725.185      210.07102     -34515.114      187.82932      187.9827       361.56526    
     50700  -34714.195      208.58113     -34505.613      187.79768      187.95263      361.70954    
     50800  -34707.031      211.63169     -34495.399      187.76679      187.92242      361.85382    
     50900  -34695.355      212.05687     -34483.298      187.73805      187.89307      361.9981     
     51000  -34678.127      210.14977     -34467.978      187.70744      187.86183      362.14238    
     51100  -34666.078      213.52009     -34452.558      187.6795       187.83158      362.28666    
     51200  -34655.791      213.61447     -34442.176      187.65077      187.80108      362.43094    
     51300  -34651.253      215.25739     -34435.996      187.61929      187.77269      362.57522    
     51400  -34635.054      209.985       -34425.069      187.5903       187.74352      362.7195     
     51500  -34626.988      213.87676     -34413.111      187.56139      187.71484      362.86378    
     51600  -34612.623      211.841       -34400.782      187.53064      187.6863       363.00806    
     51700  -34600.521      212.52253     -34387.999      187.50283      187.65802      363.15234    
     51800  -34590.513      213.45562     -34377.058      187.47462      187.6289       363.29662    
     51900  -34582.242      213.60109     -34368.641      187.44578      187.60062      363.4409     
     52000  -34568.488      210.152       -34358.336      187.41799      187.5728       363.58518    
     52100  -34556.492      212.53952     -34343.952      187.39037      187.54343      363.72946    
     52200  -34541.395      216.01172     -34325.383      187.36216      187.51702      363.87374    
     52300  -34529.517      215.57464     -34313.942      187.33446      187.48931      364.01802    
     52400  -34515.935      210.88466     -34305.05       187.30687      187.46221      364.1623     
     52500  -34507.857      212.47769     -34295.379      187.27907      187.43518      364.30658    
     52600  -34499.234      213.55266     -34285.682      187.25297      187.40818      364.45086    
     52700  -34485.541      210.05199     -34275.489      187.22559      187.38016      364.59514    
     52800  -34474.771      210.36972     -34264.401      187.19831      187.35443      364.73942    
     52900  -34467.901      212.74662     -34255.155      187.17163      187.32897      364.8837     
     53000  -34455.344      209.75356     -34245.591      187.14458      187.30207      365.02798    
     53100  -34438.737      208.39465     -34230.342      187.11922      187.27598      365.17226    
     53200  -34426.902      213.53426     -34213.368      187.09314      187.25         365.31654    
     53300  -34413.706      213.68783     -34200.018      187.06693      187.22433      365.46082    
     53400  -34406.003      215.28918     -34190.714      187.04198      187.19794      365.60509    
     53500  -34393.63       212.55281     -34181.078      187.0169       187.17239      365.74937    
     53600  -34381.533      212.76007     -34168.773      186.99024      187.14721      365.89365    
     53700  -34368.65       212.387       -34156.263      186.96565      187.12263      366.03793    
     53800  -34356.015      211.99911     -34144.016      186.93954      187.09788      366.18221    
     53900  -34345.741      210.15227     -34135.588      186.91424      187.07423      366.32649    
     54000  -34335.116      209.54023     -34125.576      186.89027      187.04845      366.47077    
     54100  -34319.147      207.98669     -34111.161      186.86643      187.02379      366.61505    
     54200  -34306.405      213.96857     -34092.436      186.84193      186.99916      366.75933    
     54300  -34293.198      215.84892     -34077.349      186.81903      186.97439      366.90361    
     54400  -34280.444      212.76106     -34067.683      186.7942       186.95159      367.04789    
     54500  -34272.138      213.45817     -34058.68       186.76968      186.92766      367.19217    
     54600  -34264.646      215.1341      -34049.512      186.74737      186.90406      367.33645    
     54700  -34250.989      211.11035     -34039.878      186.72168      186.88178      367.48073    
     54800  -34241.245      213.67439     -34027.57       186.69829      186.85998      367.62501    
     54900  -34224.504      212.10581     -34012.398      186.67588      186.83527      367.76929    
     55000  -34210.478      216.86025     -33993.618      186.65346      186.81308      367.91357    
     55100  -34197.92       216.22371     -33981.697      186.63151      186.78898      368.05785    
     55200  -34189.799      215.57956     -33974.22       186.60907      186.76623      368.20213    
     55300  -34177.32       213.42568     -33963.894      186.58516      186.7457       368.34641    
     55400  -34164.821      210.8397      -33953.981      186.56345      186.72249      368.49069    
     55500  -34156.347      212.87694     -33943.47       186.54184      186.70052      368.63497    
     55600  -34142.876      212.38704     -33930.488      186.51834      186.67895      368.77925    
     55700  -34126.442      213.36508     -33913.077      186.49749      186.65763      368.92353    
     55800  -34118.094      222.08739     -33896.007      186.47526      186.63566      369.06781    
     55900  -34098.944      211.99511     -33886.949      186.45311      186.61446      369.21209    
     56000  -34092.733      215.11514     -33877.618      186.43317      186.59261      369.35637    
     56100  -34077.997      211.58693     -33866.41       186.41174      186.57108      369.50065    
     56200  -34067.102      211.73851     -33855.363      186.38933      186.55083      369.64493    
     56300  -34056.693      212.01039     -33844.683      186.36865      186.53001      369.78921    
     56400  -34046.837      212.05905     -33834.778      186.34691      186.50912      369.93349    
     56500  -34035.552      210.41689     -33825.135      186.32683      186.48783      370.07777    
     56600  -34020.211      211.5051      -33808.706      186.30755      186.46633      370.22205    
     56700  -34003.651      214.59211     -33789.059      186.28603      186.44637      370.36633    
     56800  -33992.316      216.80733     -33775.509      186.26575      186.42626      370.51061    
     56900  -33979.46       213.65386     -33765.806      186.24547      186.40614      370.65489    
     57000  -33972.015      216.79166     -33755.223      186.22524      186.38605      370.79917    
     57100  -33954.669      212.27747     -33742.392      186.20494      186.3659       370.94345    
     57200  -33940.346      211.8858      -33728.46       186.18465      186.34764      371.08773    
     57300  -33926.125      211.41975     -33714.705      186.16484      186.32734      371.23201    
     57400  -33917.569      212.08451     -33705.484      186.14597      186.30703      371.37629    
     57500  -33905.57       210.45153     -33695.119      186.12696      186.28725      371.52057    
     57600  -33890.859      211.42065     -33679.438      186.10801      186.26721      371.66485    
     57700  -33876.313      215.11122     -33661.202      186.08819      186.24802      371.80913    
     57800  -33861.05       215.60281     -33645.447      186.06833      186.23045      371.95341    
     57900  -33848.833      211.48063     -33637.353      186.04785      186.21156      372.09769    
     58000  -33837.396      211.14049     -33626.255      186.02977      186.19274      372.24197    
     58100  -33827.76       215.93598     -33611.824      186.01109      186.17364      372.38625    
     58200  -33811.812      213.1025      -33598.71       185.9919       186.15403      372.53053    
     58300  -33796.603      210.0926      -33586.51       185.97436      186.13562      372.67481    
     58400  -33786.177      210.68163     -33575.495      185.956        186.11619      372.81909    
     58500  -33771.651      208.46201     -33563.189      185.93704      186.09738      372.96337    
     58600  -33760.049      212.02005     -33548.029      185.91843      186.08002      373.10765    
     58700  -33745.435      216.91945     -33528.516      185.89866      186.06156      373.25193    
     58800  -33727.588      215.39296     -33512.195      185.87946      186.04395      373.39621    
     58900  -33717.746      216.14049     -33501.606      185.86088      186.02685      373.54049    
     59000  -33704.559      214.21016     -33490.349      185.84344      186.00671      373.68477    
     59100  -33688.982      211.50229     -33477.48       185.82607      185.98747      373.82905    
     59200  -33675.641      210.58649     -33465.054      185.80869      185.96949      373.97333    
     59300  -33664.626      210.81518     -33453.811      185.79096      185.95023      374.11761    
     59400  -33650.657      208.14848     -33442.509      185.77134      185.93334      374.26188    
     59500  -33636.942      207.19928     -33429.743      185.75418      185.91619      374.40616    
     59600  -33625.696      213.23133     -33412.465      185.73606      185.89748      374.55044    
     59700  -33606.938      214.73104     -33392.207      185.71614      185.8812       374.69472    
     59800  -33588.241      211.23989     -33377.001      185.69998      185.86348      374.839      
     59900  -33581.715      215.53235     -33366.183      185.68201      185.8449       374.98328    
     60000  -33569.256      215.28081     -33353.975      185.66393      185.82745      375.12756    
     60100  -33552.602      213.20263     -33339.4        185.64854      185.80825      375.27184    
     60200  -33538.647      213.6611      -33324.986      185.63139      185.78989      375.41612    
     60300  -33526.552      213.02585     -33313.526      185.61213      185.77332      375.5604     
     60400  -33509.719      207.29197     -33302.427      185.59499      185.75711      375.70468    
     60500  -33499.137      213.43579     -33285.701      185.57634      185.73954      375.84896    
     60600  -33483.054      214.70621     -33268.348      185.55807      185.72289      375.99324    
     60700  -33463.486      210.71365     -33252.772      185.5427       185.70509      376.13752    
     60800  -33451.047      213.24738     -33237.799      185.52461      185.6866       376.2818     
     60900  -33439.418      214.06951     -33225.348      185.50788      185.66917      376.42608    
     61000  -33423.411      208.44585     -33214.966      185.49164      185.65223      376.57036    
     61100  -33411.55       211.82411     -33199.725      185.47278      185.63423      376.71464    
     61200  -33394.19       212.77325     -33181.417      185.45631      185.61697      376.85892    
     61300  -33379.779      215.02365     -33164.756      185.4391       185.60045      377.0032     
     61400  -33363.415      213.2423      -33150.173      185.42043      185.58328      377.14748    
     61500  -33348.412      212.29849     -33136.114      185.4033       185.56605      377.29176    
     61600  -33337.798      214.39275     -33123.405      185.38647      185.54942      377.43604    
     61700  -33324.709      211.00966     -33113.7        185.36912      185.53072      377.58032    
     61800  -33309.08       211.64246     -33097.438      185.35292      185.51297      377.7246     
     61900  -33294.465      215.88139     -33078.583      185.33602      185.49632      377.86888    
     62000  -33273.078      212.42176     -33060.657      185.3179       185.47856      378.01316    
     62100  -33260.906      215.83133     -33045.075      185.30091      185.46172      378.15744    
     62200  -33243.058      211.37823     -33031.68       185.28348      185.44553      378.30172    
     62300  -33232.414      210.77679     -33021.637      185.26615      185.42724      378.446      
     62400  -33215.201      210.9584      -33004.242      185.24904      185.41038      378.59028    
     62500  -33196.584      211.62251     -32984.962      185.23181      185.39364      378.73456    
     62600  -33181.32       215.00707     -32966.313      185.21549      185.37496      378.87884    
     62700  -33166.612      213.00519     -32953.607      185.19833      185.35827      379.02312    
     62800  -33152.73       210.51053     -32942.219      185.18119      185.34111      379.1674     
     62900  -33137.061      211.80148     -32925.259      185.16414      185.32347      379.31168    
     63000  -33119.805      213.11051     -32906.695      185.14578      185.30763      379.45596    
     63100  -33103.126      215.62861     -32887.498      185.12845      185.291        379.60024    
     63200  -33084.541      214.89175     -32869.65       185.11095      185.27311      379.74452    
     63300  -33073.035      214.31129     -32858.724      185.09486      185.25559      379.8888     
     63400  -33057.29       212.5125      -32844.777      185.07811      185.23745      380.03308    
     63500  -33041.329      211.55416     -32829.774      185.06048      185.21975      380.17736    
     63600  -33023.208      209.28026     -32813.928      185.04342      185.20295      380.32164    
     63700  -33014.342      213.86954     -32800.473      185.02517      185.18662      380.46592    
     63800  -32997.81       210.75421     -32787.055      185.00699      185.16902      380.6102     
     63900  -32980.361      213.2775      -32767.084      184.99003      185.15206      380.75448    
     64000  -32958.829      215.2866      -32743.543      184.97236      185.1343       380.89876    
     64100  -32941.728      214.86294     -32726.865      184.95597      185.11621      381.04304    
     64200  -32930.636      217.15203     -32713.484      184.93799      185.09853      381.18732    
     64300  -32914.361      215.35962     -32699.002      184.92187      185.08089      381.3316     
     64400  -32899.628      216.58195     -32683.046      184.90451      185.06196      381.47588    
     64500  -32880.057      212.60757     -32667.45       184.88627      185.04505      381.62016    
     64600  -32864.241      210.73906     -32653.502      184.86915      185.02833      381.76444    
     64700  -32847.198      206.6098      -32640.589      184.84965      185.01051      381.90872    
     64800  -32833.039      207.29831     -32625.74       184.8313       184.99407      382.053      
     64900  -32815.49       210.39147     -32605.099      184.81488      184.97609      382.19728    
     65000  -32795.478      211.81308     -32583.665      184.79635      184.95761      382.34156    
     65100  -32774.894      210.98982     -32563.904      184.78033      184.93973      382.48584    
     65200  -32760.876      213.98627     -32546.889      184.76339      184.92029      382.63012    
     65300  -32743.62       209.33451     -32534.286      184.74421      184.90335      382.7744     
     65400  -32727.865      210.84578     -32517.019      184.72784      184.88591      382.91867    
     65500  -32710.088      212.85941     -32497.229      184.70802      184.86773      383.06295    
     65600  -32693.303      216.28105     -32477.022      184.68929      184.85164      383.20723    
     65700  -32671.481      213.84396     -32457.637      184.67222      184.83282      383.35151    
     65800  -32658.846      214.53463     -32444.311      184.65334      184.81505      383.49579    
     65900  -32641.793      212.86195     -32428.931      184.63549      184.79649      383.64007    
     66000  -32624.22       211.68119     -32412.539      184.61849      184.77708      383.78435    
     66100  -32606.109      211.02879     -32395.08       184.59991      184.75977      383.92863    
     66200  -32591.215      211.37035     -32379.845      184.58156      184.74045      384.07291    
     66300  -32576.966      211.37552     -32365.591      184.56401      184.72295      384.21719    
     66400  -32554.788      210.08232     -32344.706      184.54332      184.70606      384.36147    
     66500  -32536.891      220.0327      -32316.858      184.52513      184.68579      384.50575    
     66600  -32515.407      215.54369     -32299.863      184.50768      184.66905      384.65003    
     66700  -32498.747      212.9758      -32285.771      184.48698      184.65056      384.79431    
     66800  -32483.451      215.13531     -32268.316      184.47062      184.62917      384.93859    
     66900  -32466.415      215.16152     -32251.254      184.45234      184.61273      385.08287    
     67000  -32447.985      213.33703     -32234.648      184.43241      184.59274      385.22715    
     67100  -32428.85       212.83672     -32216.014      184.41555      184.57339      385.37143    
     67200  -32407.559      211.41165     -32196.147      184.39484      184.5568       385.51571    
     67300  -32391.122      214.08083     -32177.041      184.37584      184.53727      385.65999    
     67400  -32373.479      215.72133     -32157.757      184.35731      184.51784      385.80427    
     67500  -32353.595      213.96496     -32139.63       184.33749      184.50115      385.94855    
     67600  -32336.336      213.6462      -32122.69       184.31897      184.47972      386.09283    
     67700  -32319.247      215.79054     -32103.456      184.30041      184.46006      386.23711    
     67800  -32298.884      214.35675     -32084.527      184.28065      184.44343      386.38139    
     67900  -32279.16       213.45127     -32065.709      184.26189      184.42194      386.52567    
     68000  -32263.72       216.99843     -32046.722      184.24124      184.40329      386.66995    
     68100  -32240.301      213.47948     -32026.822      184.22265      184.38517      386.81423    
     68200  -32222.621      213.6081      -32009.013      184.20332      184.36411      386.95851    
     68300  -32203.964      213.90924     -31990.054      184.18257      184.34554      387.10279    
     68400  -32183.535      212.5362      -31970.999      184.16458      184.32599      387.24707    
     68500  -32166.601      214.49255     -31952.108      184.14437      184.30565      387.39135    
     68600  -32145.449      212.90965     -31932.54       184.1242       184.28628      387.53563    
     68700  -32126.497      212.45726     -31914.04       184.10565      184.26596      387.67991    
     68800  -32111.105      215.736       -31895.369      184.0844       184.2471       387.82419    
     68900  -32091.948      216.34946     -31875.599      184.0639       184.2269       387.96847    
     69000  -32072.283      217.77266     -31854.511      184.04523      184.20694      388.11275    
     69100  -32053.986      219.43514     -31834.551      184.02425      184.18697      388.25703    
     69200  -32029.711      214.58785     -31815.123      184.00444      184.16545      388.40131    
     69300  -32009.923      214.0606      -31795.863      183.98537      184.14554      388.54559    
     69400  -31992.684      215.90125     -31776.782      183.96411      184.12572      388.68987    
     69500  -31969.148      212.05451     -31757.094      183.94402      184.1048       388.83415    
     69600  -31953.559      216.42156     -31737.137      183.92273      184.08487      388.97843    
     69700  -31933.249      216.58737     -31716.661      183.90254      184.06565      389.12271    
     69800  -31910.74       214.54311     -31696.197      183.88125      184.04411      389.26699    
     69900  -31891.051      215.06747     -31675.984      183.86046      184.02423      389.41127    
     70000  -31870.618      214.12016     -31656.498      183.84024      184.00318      389.55555    
     70100  -31849.25       212.50043     -31636.749      183.82009      183.98083      389.69983    
     70200  -31831.024      215.30233     -31615.722      183.79989      183.9598       389.84411    
     70300  -31810.133      214.84144     -31595.291      183.77861      183.93962      389.98839    
     70400  -31792.043      218.03442     -31574.009      183.75631      183.91852      390.13267    
     70500  -31772.338      217.58201     -31554.756      183.73505      183.89832      390.27695    
     70600  -31748.835      215.2894      -31533.546      183.71299      183.87824      390.42123    
     70700  -31727.86       214.50494     -31513.355      183.69245      183.85544      390.56551    
     70800  -31707.764      215.58384     -31492.18       183.67118      183.83376      390.70979    
     70900  -31685.494      215.68898     -31469.805      183.65039      183.81263      390.85407    
     71000  -31668.806      219.24136     -31449.564      183.62943      183.79003      390.99835    
     71100  -31644.255      216.49404     -31427.76       183.60735      183.76799      391.14263    
     71200  -31621.008      213.73946     -31407.269      183.586        183.74754      391.28691    
     71300  -31604.984      219.1857      -31385.798      183.56338      183.72589      391.43118    
     71400  -31582.158      216.35525     -31365.803      183.54079      183.70495      391.57546    
     71500  -31563.779      219.30407     -31344.475      183.51885      183.68305      391.71974    
     71600  -31543.083      220.40466     -31322.678      183.49695      183.66082      391.86402    
     71700  -31516.914      215.67846     -31301.235      183.47579      183.63906      392.0083     
     71800  -31495.146      216.64586     -31278.5        183.45457      183.6147       392.15258    
     71900  -31471.677      213.74315     -31257.934      183.43181      183.59316      392.29686    
     72000  -31454.025      218.58448     -31235.441      183.40965      183.57161      392.44114    
     72100  -31430.265      216.34072     -31213.924      183.38773      183.54881      392.58542    
     72200  -31409.776      218.89453     -31190.881      183.36316      183.52725      392.7297     
     72300  -31386          217.5063      -31168.494      183.34121      183.50461      392.87398    
     72400  -31367.951      220.74112     -31147.209      183.31956      183.48237      393.01826    
     72500  -31343.945      220.15756     -31123.788      183.29511      183.45928      393.16254    
     72600  -31325.679      222.08114     -31103.598      183.27442      183.43595      393.30682    
     72700  -31297.56       215.79181     -31081.768      183.25172      183.41355      393.4511     
     72800  -31278.378      219.28575     -31059.093      183.2282       183.39033      393.59538    
[...]
     81600  -38485.235      217.72692     -38267.508      183.6835       183.5589       406.29201    
     81700  -38506.181      210.9008      -38295.28       183.69763      183.56882      406.43629    
     81800  -38530.595      212.40145     -38318.193      183.71296      183.58552      406.58057    
     81900  -38554.217      213.99053     -38340.226      183.72415      183.6011       406.72485    
     82000  -38577.824      213.13738     -38364.687      183.73927      183.6106       406.86913    
     82100  -38591.167      206.37743     -38384.789      183.75562      183.62676      407.01341    
     82200  -38595.648      202.96786     -38392.68       183.76775      183.64344      407.15769    
     82300  -38590.077      205.57142     -38384.505      183.78216      183.6559       407.30197    
     82400  -38569.083      206.39944     -38362.684      183.8011       183.67012      407.44625    
     82500  -38542.92       209.75875     -38333.161      183.81471      183.68604      407.59053    
     82600  -38516.242      213.30714     -38302.935      183.82762      183.70109      407.73481    
     82700  -38492.368      214.41123     -38277.956      183.84499      183.7151       407.87909    
     82800  -38476.417      216.75976     -38259.657      183.85885      183.72903      408.02337    
     82900  -38458.034      210.17072     -38247.864      183.87095      183.74457      408.16765    
     83000  -38443.781      209.73176     -38234.05       183.88529      183.76334      408.31193    
     83100  -38437.016      217.41988     -38219.596      183.90052      183.7769       408.45621    
     83200  -38440.857      224.64388     -38216.214      183.91835      183.7897       408.60048    
     83300  -38455.964      220.97263     -38234.991      183.93502      183.80665      408.74476    
     83400  -38482.943      214.4772      -38268.466      183.94599      183.82463      408.88904    
     83500  -38501.51       204.28549     -38297.225      183.96138      183.8413       409.03332    
     83600  -38521.597      210.6185      -38310.978      183.97581      183.85811      409.1776     
     83700  -38531.36       213.06472     -38318.295      183.99052      183.87388      409.32188    
     83800  -38536.26       211.77567     -38324.484      184.00699      183.88924      409.46616    
     83900  -38545.514      215.31592     -38330.198      184.02012      183.9076       409.61044    
     84000  -38536.566      201.7589      -38334.807      184.03541      183.92426      409.75472    
     84100  -38527.553      203.48048     -38324.072      184.05115      183.94019      409.899      
     84200  -38527.923      225.54859     -38302.374      184.06617      183.95833      410.04328    
     84300  -38517.325      219.89451     -38297.43       184.08212      183.97447      410.18756    
     84400  -38513.273      204.14715     -38309.126      184.09733      183.9892       410.33184    
     84500  -38519.361      211.39227     -38307.969      184.11283      184.00746      410.47612    
     84600  -38498.642      202.97213     -38295.67       184.12948      184.02491      410.6204     
     84700  -38499.183      225.14031     -38274.043      184.14342      184.03857      410.76468    
     84800  -38500.368      229.62841     -38270.739      184.15941      184.05782      410.90896    
     84900  -38512.505      220.34519     -38292.159      184.17507      184.07629      411.05324    
     85000  -38521.481      199.6915      -38321.789      184.18804      184.09299      411.19752    
     85100  -38535.082      203.28152     -38331.8        184.19969      184.11143      411.3418     
     85200  -38527.662      204.49104     -38323.171      184.22013      184.13059      411.48608    
     85300  -38513.077      214.94418     -38298.132      184.2365       184.14416      411.63036    
     85400  -38518.171      236.60448     -38281.567      184.24691      184.16136      411.77464    
     85500  -38514.326      212.76095     -38301.565      184.26441      184.18477      411.91892    
     85600  -38520.135      198.81704     -38321.317      184.28034      184.20104      412.0632     
     85700  -38519.179      201.72971     -38317.449      184.29134      184.21705      412.20748    
     85800  -38508.376      212.38975     -38295.987      184.30878      184.23747      412.35176    
     85900  -38484.347      212.48242     -38271.865      184.32658      184.25363      412.49604    
     86000  -38476.595      221.65085     -38254.944      184.33871      184.26752      412.64032    
     86100  -38489.193      230.18143     -38259.012      184.35296      184.28958      412.7846     
     86200  -38496.377      209.14733     -38287.23       184.36912      184.30691      412.92888    
     86300  -38500.956      194.10946     -38306.846      184.38161      184.32164      413.07316    
     86400  -38513.389      212.46029     -38300.929      184.39532      184.34309      413.21744    
     86500  -38519.886      229.62394     -38290.262      184.40934      184.36134      413.36172    
     86600  -38526.876      215.31915     -38311.557      184.42219      184.37843      413.506      
     86700  -38538.368      201.371       -38336.997      184.43848      184.39629      413.65028    
     86800  -38542.529      200.05049     -38342.478      184.45223      184.41563      413.79456    
     86900  -38532.895      205.62445     -38327.271      184.46564      184.43346      413.93884    
     87000  -38524.177      223.05714     -38301.119      184.47986      184.45338      414.08312    
     87100  -38515.491      225.22105     -38290.269      184.4942       184.47418      414.2274     
     87200  -38502.476      202.81516     -38299.661      184.51128      184.49118      414.37168    
     87300  -38509.773      211.0301      -38298.743      184.52716      184.50858      414.51596    
     87400  -38503.152      212.0429      -38291.109      184.54324      184.52994      414.66024    
     87500  -38494.199      215.01264     -38279.187      184.55955      184.55003      414.80452    
     87600  -38489.668      219.86607     -38269.802      184.57581      184.56834      414.9488     
     87700  -38497.602      220.50521     -38277.096      184.58977      184.59056      415.09308    
     87800  -38498.764      204.69442     -38294.07       184.60398      184.6147       415.23736    
     87900  -38513.204      213.61981     -38299.584      184.61912      184.63261      415.38164    
     88000  -38514.094      210.3645      -38303.73       184.6343       184.65142      415.52592    
     88100  -38516.157      210.03553     -38306.121      184.64928      184.67284      415.6702     
     88200  -38517.218      213.33836     -38303.879      184.66503      184.69192      415.81448    
     88300  -38518.845      217.90039     -38300.944      184.68026      184.71181      415.95876    
     88400  -38509.983      208.55564     -38301.427      184.69448      184.73516      416.10304    
     88500  -38503.325      205.46971     -38297.856      184.70717      184.75597      416.24732    
     88600  -38498.131      213.24593     -38284.885      184.72233      184.7775       416.3916     
     88700  -38483.648      213.50262     -38270.145      184.74023      184.79692      416.53588    
     88800  -38482.369      223.72947     -38258.64       184.76027      184.81272      416.68016    
     88900  -38484.133      219.17485     -38264.959      184.7789       184.83268      416.82444    
     89000  -38492.748      208.52277     -38284.226      184.79543      184.85397      416.96872    
     89100  -38495.061      202.73649     -38292.324      184.81478      184.87136      417.113      
     89200  -38490.911      208.4407      -38282.47       184.83195      184.89163      417.25727    
     89300  -38490.431      223.09008     -38267.341      184.84466      184.91395      417.40155    
     89400  -38494.178      222.85103     -38271.327      184.85908      184.93326      417.54583    
     89500  -38511.151      215.31482     -38295.836      184.87523      184.95097      417.69011    
     89600  -38523.289      203.87519     -38319.414      184.89219      184.96933      417.83439    
     89700  -38528.49       203.87869     -38324.611      184.90855      184.98813      417.97867    
     89800  -38523.443      211.08371     -38312.359      184.92497      185.00594      418.12295    
     89900  -38510.902      216.40685     -38294.495      184.94057      185.02843      418.26723    
     90000  -38499.909      218.43618     -38281.473      184.954        185.05253      418.41151    
     90100  -38497.193      217.31461     -38279.879      184.96975      185.07339      418.55579    
     90200  -38497.036      208.97137     -38288.064      184.98731      185.09378      418.70007    
     90300  -38498.886      207.88725     -38290.999      185.00424      185.11503      418.84435    
     90400  -38491.466      208.33394     -38283.132      185.02182      185.13632      418.98863    
     90500  -38485.438      216.49571     -38268.942      185.04021      185.15657      419.13291    
     90600  -38487.773      223.14216     -38264.631      185.05557      185.18132      419.27719    
     90700  -38495.06       217.01987     -38278.04       185.07159      185.2051       419.42147    
     90800  -38507.894      209.15554     -38298.739      185.08908      185.22712      419.56575    
     90900  -38518.551      206.91087     -38311.64       185.10298      185.25125      419.71003    
     91000  -38517.7        206.85802     -38310.842      185.11693      185.2772       419.85431    
     91100  -38511.721      212.17866     -38299.542      185.1339       185.29952      419.99859    
     91200  -38503.695      216.01774     -38287.677      185.15094      185.32084      420.14287    
     91300  -38498.317      216.25304     -38282.064      185.16566      185.34518      420.28715    
     91400  -38496.527      211.92273     -38284.604      185.18032      185.36734      420.43143    
     91500  -38496.633      208.7711      -38287.862      185.1936       185.38966      420.57571    
     91600  -38489.779      205.73831     -38284.041      185.20518      185.41613      420.71999    
     91700  -38489.483      217.90398     -38271.579      185.22003      185.43756      420.86427    
     91800  -38479.893      216.23502     -38263.658      185.23515      185.45647      421.00855    
     91900  -38483.736      217.33385     -38266.402      185.24608      185.48078      421.15283    
     92000  -38492.989      213.57635     -38279.413      185.26237      185.50329      421.29711    
     92100  -38501.603      210.39619     -38291.206      185.28236      185.52228      421.44139    
     92200  -38504.594      207.66949     -38296.925      185.29897      185.54519      421.58567    
     92300  -38508.048      213.54758     -38294.5        185.31729      185.57062      421.72995    
     92400  -38507.55       215.58313     -38291.967      185.33863      185.5912       421.87423    
     92500  -38512.692      216.46037     -38296.232      185.35729      185.61207      422.01851    
     92600  -38519.101      211.82621     -38307.274      185.37476      185.63539      422.16279    
     92700  -38517.552      203.99201     -38313.56       185.39192      185.66098      422.30707    
     92800  -38511.471      205.88224     -38305.589      185.4098       185.68401      422.45135    
     92900  -38504.984      217.6796      -38287.305      185.42691      185.70885      422.59563    
     93000  -38492.435      219.33305     -38273.102      185.44643      185.73319      422.73991    
     93100  -38490.866      218.34171     -38272.524      185.46635      185.75668      422.88419    
     93200  -38495.143      212.15544     -38282.988      185.48348      185.78286      423.02847    
     93300  -38497.045      205.29313     -38291.752      185.49945      185.81232      423.17275    
     93400  -38493.949      205.49628     -38288.452      185.52028      185.83907      423.31703    
     93500  -38488.438      213.48832     -38274.95       185.53894      185.86597      423.46131    
     93600  -38491.648      222.97194     -38268.676      185.55424      185.89625      423.60559    
     93700  -38501.359      219.05596     -38282.303      185.57319      185.92631      423.74987    
     93800  -38514.665      209.36483     -38305.3        185.59274      185.95355      423.89415    
     93900  -38519.171      201.48536     -38317.686      185.60956      185.98259      424.03843    
     94000  -38515.344      205.25515     -38310.089      185.62666      186.01424      424.18271    
     94100  -38504.533      215.54583     -38288.987      185.64685      186.04239      424.32699    
     94200  -38492.458      220.53622     -38271.922      185.66543      186.07174      424.47127    
     94300  -38489.044      219.03932     -38270.005      185.6829       186.10304      424.61555    
     94400  -38491.374      210.37639     -38280.998      185.70314      186.1306       424.75983    
     94500  -38493.297      203.39126     -38289.906      185.72196      186.15856      424.90411    
     94600  -38490.387      207.09093     -38283.296      185.73909      186.18951      425.04839    
     94700  -38482.984      216.29635     -38266.688      185.75695      186.21676      425.19267    
     94800  -38481.031      222.20908     -38258.822      185.77478      186.24239      425.33695    
     94900  -38489.964      219.47526     -38270.489      185.79038      186.27025      425.48123    
     95000  -38502.5        210.57951     -38291.92       185.8026       186.29889      425.62551    
     95100  -38511.581      205.59465     -38305.986      185.8168       186.32543      425.76979    
     95200  -38514.466      209.46184     -38305.004      185.83257      186.3503       425.91406    
     95300  -38510.405      214.32426     -38296.081      185.84459      186.37726      426.05834    
     95400  -38515.077      221.76492     -38293.312      185.85702      186.40597      426.20262    
     95500  -38515.189      211.72928     -38303.46       185.87099      186.43504      426.3469     
     95600  -38513.79       202.77169     -38311.019      185.88595      186.46223      426.49118    
     95700  -38508.596      206.67709     -38301.919      185.90064      186.49158      426.63546    
     95800  -38495.005      214.77387     -38280.231      185.91373      186.5237       426.77974    
     95900  -38487.78       222.70343     -38265.076      185.92811      186.5539       426.92402    
     96000  -38492.566      220.7684      -38271.798      185.94316      186.58436      427.0683     
     96100  -38504.267      211.00497     -38293.262      185.95879      186.61578      427.21258    
     96200  -38508.983      201.98678     -38306.997      185.976        186.64798      427.35686    
     96300  -38508.515      207.47063     -38301.045      185.99484      186.6819       427.50114    
     96400  -38499.492      216.34098     -38283.151      186.01856      186.71591      427.64542    
     96500  -38500.064      226.87969     -38273.184      186.04225      186.75145      427.7897     
     96600  -38505.177      221.0945      -38284.083      186.06399      186.78782      427.93398    
     96700  -38514.188      209.07256     -38305.115      186.08961      186.82311      428.07826    
     96800  -38514.216      200.44119     -38313.775      186.11502      186.85884      428.22254    
     96900  -38506.961      206.18241     -38300.779      186.13601      186.89631      428.36682    
     97000  -38499.435      221.0882      -38278.347      186.15739      186.93321      428.5111     
     97100  -38487.392      219.25083     -38268.141      186.18255      186.9682       428.65538    
     97200  -38491.396      213.50872     -38277.887      186.20348      187.00315      428.79966    
     97300  -38494.916      205.47797     -38289.438      186.22226      187.04074      428.94394    
     97400  -38493.706      207.53941     -38286.167      186.2422       187.0749       429.08822    
     97500  -38490.478      215.81346     -38274.665      186.26266      187.10797      429.2325     
     97600  -38490.289      220.04826     -38270.241      186.27863      187.14364      429.37678    
     97700  -38498.913      216.44912     -38282.464      186.29493      187.17809      429.52106    
     97800  -38506.438      206.35435     -38300.084      186.31336      187.21035      429.66534    
     97900  -38512.144      203.99913     -38308.144      186.33007      187.24278      429.80962    
     98000  -38507.652      207.37656     -38300.276      186.34619      187.27636      429.9539     
     98100  -38503.316      217.66971     -38285.646      186.36207      187.31031      430.09818    
     98200  -38506.698      223.8095      -38282.889      186.37823      187.3437       430.24246    
     98300  -38508.955      212.00727     -38296.948      186.39655      187.37645      430.38674    
     98400  -38514.607      203.27905     -38311.328      186.41391      187.40981      430.53102    
     98500  -38514.138      204.68168     -38309.456      186.42961      187.44539      430.6753     
     98600  -38502.716      210.13309     -38292.583      186.44776      187.48042      430.81958    
     98700  -38493.652      218.62997     -38275.022      186.46785      187.51467      430.96386    
     98800  -38493.413      221.41397     -38271.999      186.48645      187.54995      431.10814    
     98900  -38498.751      214.5432      -38284.208      186.50582      187.58685      431.25242    
     99000  -38505.82       209.13165     -38296.689      186.52679      187.62346      431.3967     
     99100  -38505.761      207.16485     -38298.596      186.54441      187.66245      431.54098    
     99200  -38502.193      211.24704     -38290.946      186.56208      187.70223      431.68526    
     99300  -38501.393      217.89824     -38283.495      186.58262      187.74044      431.82954    
     99400  -38504.034      218.92728     -38285.107      186.60278      187.77849      431.97382    
     99500  -38508.749      214.045       -38294.704      186.61935      187.81942      432.1181     
     99600  -38512.983      209.93866     -38303.045      186.63986      187.85807      432.26238    
     99700  -38509.383      206.80565     -38302.577      186.66189      187.89626      432.40666    
     99800  -38506.132      213.25566     -38292.876      186.68006      187.93997      432.55094    
     99900  -38494.842      216.49749     -38278.345      186.70014      187.98369      432.69522    
    100000  -38490.586      220.60742     -38269.978      186.72512      188.02379      432.8395     
Loop time of 49695.4 on 12 procs for 100000 steps with 5488 atoms

Performance: 0.174 ns/day, 138.043 hours/ns, 2.012 timesteps/s, 11.043 katom-step/s
40.3% CPU use with 12 MPI tasks x 1 OpenMP threads

MPI task timing breakdown:
Section |  min time  |  avg time  |  max time  |%varavg| %total
---------------------------------------------------------------
Pair    | 845.25     | 1161.7     | 1519.5     | 554.5 |  2.34
Neigh   | 5.1535     | 7.4912     | 10.937     |  71.3 |  0.02
Comm    | 7421.7     | 8043.8     | 8585.7     | 356.7 | 16.19
Output  | 155.18     | 159.62     | 164.36     |  22.8 |  0.32
Modify  | 35261      | 35785      | 36384      | 146.5 | 72.01
Other   |            | 4538       |            |       |  9.13

Nlocal:        457.333 ave         975 max          45 min
Histogram: 2 2 0 1 2 1 2 0 1 1
Nghost:        1654.33 ave        2730 max         889 min
Histogram: 3 1 2 1 1 0 0 1 0 3
Neighs:              0 ave           0 max           0 min
Histogram: 12 0 0 0 0 0 0 0 0 0

Total # of neighbors = 0
Ave neighs/atom = 0
Neighbor list builds = 679
Dangerous builds = 0
Total wall time: 13:48:21
