LAMMPS (2 Aug 2023 - Update 3)
OMP_NUM_THREADS environment is not set. Defaulting to 1 thread. (src/comm.cpp:98)
  using 1 OpenMP thread(s) per MPI task
Reading data file ...
  orthogonal box = (-100 -100 -2.3312515) to (100 100 46.166171)
  4 by 8 by 1 MPI processor grid
  reading atoms ...
  1480 atoms
  read_data CPU = 0.007 seconds
Replication is creating a 1x1x17 = 17 times larger system...
  orthogonal box = (-100 -100 -2.3312515) to (100 100 822.12494)
  2 by 2 by 8 MPI processor grid
  25160 atoms
  replicate CPU = 0.002 seconds
6120 atoms in group SR
Deleted 6120 atoms, new total = 19040
System init for write_data ...
WARNING: Communication cutoff is 0.0. No ghost atoms will be generated. Atoms may get lost. (src/comm_brick.cpp:210)
Reading airebo potential file CH.airebo with DATE: 2011-10-25
Reading airebo potential file CH.airebo with DATE: 2011-10-25
Reading airebo potential file CH.airebo with DATE: 2011-10-25
Neighbor list info ...
  update: every = 1 steps, delay = 0 steps, check = yes
  max neighbors/atom: 2000, page size: 100000
  master list distance cutoff = 13.2
  ghost atom cutoff = 13.2
  binsize = 6.6, bins = 31 31 125
  6 neighbor lists, perpetual/occasional/extra = 6 0 0
  (1) pair airebo, perpetual, skip from (5)
      attributes: full, newton on, ghost
      pair build: skip/ghost
      stencil: none
      bin: none
  (2) pair airebo, perpetual, skip from (5)
      attributes: full, newton on, ghost
      pair build: skip/ghost
      stencil: none
      bin: none
  (3) pair airebo, perpetual, skip from (5)
      attributes: full, newton on, ghost
      pair build: skip/ghost
      stencil: none
      bin: none
  (4) pair lj/cut, perpetual, skip from (6)
      attributes: half, newton on, cut 13
      pair build: skip
      stencil: none
      bin: none
  (5) neighbor class addition, perpetual
      attributes: full, newton on, ghost
      pair build: full/bin/ghost
      stencil: full/ghost/bin/3d
      bin: standard
  (6) neighbor class addition, perpetual
      attributes: half, newton on, cut 13
      pair build: half/bin/atomonly/newton
      stencil: half/bin/3d
      bin: standard
Setting up sd style minimization ...
  Unit style    : metal
  Current step  : 0
Per MPI rank memory allocation (min/avg/max) = 11.71 | 11.71 | 11.71 Mbytes
   Step          Temp          E_pair         E_mol          TotEng         Press     
         0   0             -141135.62      0             -141135.62     -48.029154    
         1   0             -141135.82      0             -141135.82     -47.94229     
Loop time of 0.0311081 on 32 procs for 1 steps with 19040 atoms

95.0% CPU use with 32 MPI tasks x 1 OpenMP threads

Minimization stats:
  Stopping criterion = energy tolerance
  Energy initial, next-to-last, final = 
     -141135.618614618  -141135.618614618  -141135.820926357
  Force two-norm initial, final = 7.2428576 1.1783581
  Force max component initial, final = 0.052442243 0.0085447709
  Final line search alpha, max atom move = 1 0.0085447709
  Iterations, force evaluations = 1 2

MPI task timing breakdown:
Section |  min time  |  avg time  |  max time  |%varavg| %total
---------------------------------------------------------------
Pair    | 0.025692   | 0.02774    | 0.030208   |   0.8 | 89.17
Neigh   | 0          | 0          | 0          |   0.0 |  0.00
Comm    | 0.00045351 | 0.0026783  | 0.0047988  |   2.7 |  8.61
Output  | 0          | 0          | 0          |   0.0 |  0.00
Modify  | 0          | 0          | 0          |   0.0 |  0.00
Other   |            | 0.0006896  |            |       |  2.22

Nlocal:            595 ave         638 max         552 min
Histogram: 8 0 0 0 4 12 0 0 0 8
Nghost:           2373 ave        2416 max        2330 min
Histogram: 8 0 0 0 4 12 0 0 0 8
Neighs:              0 ave           0 max           0 min
Histogram: 32 0 0 0 0 0 0 0 0 0

Total # of neighbors = 0
Ave neighs/atom = 0
Neighbor list builds = 0
Dangerous builds = 0
Setting up Verlet run ...
  Unit style    : metal
  Current step  : 1
  Time step     : 0.001
Per MPI rank memory allocation (min/avg/max) = 12.33 | 12.33 | 12.33 Mbytes
   Step          Temp          E_pair         E_mol          TotEng         Press          Volume    
         1   300           -141135.82      0             -140397.53     -24.029979      32978248     
Loop time of 7.26564e-05 on 32 procs for 0 steps with 19040 atoms

91.4% CPU use with 32 MPI tasks x 1 OpenMP threads

MPI task timing breakdown:
Section |  min time  |  avg time  |  max time  |%varavg| %total
---------------------------------------------------------------
Pair    | 0          | 0          | 0          |   0.0 |  0.00
Neigh   | 0          | 0          | 0          |   0.0 |  0.00
Comm    | 0          | 0          | 0          |   0.0 |  0.00
Output  | 0          | 0          | 0          |   0.0 |  0.00
Modify  | 0          | 0          | 0          |   0.0 |  0.00
Other   |            | 7.266e-05  |            |       |100.00

Nlocal:            595 ave         595 max         595 min
Histogram: 32 0 0 0 0 0 0 0 0 0
Nghost:           2373 ave        2373 max        2373 min
Histogram: 32 0 0 0 0 0 0 0 0 0
Neighs:              0 ave           0 max           0 min
Histogram: 32 0 0 0 0 0 0 0 0 0

Total # of neighbors = 0
Ave neighs/atom = 0
Neighbor list builds = 0
Dangerous builds = 0
WARNING: Dump 2 includes no atom IDs and is not sorted by ID. This may complicate post-processing tasks or visualization (src/dump.cpp:221)
Setting up Verlet run ...
  Unit style    : metal
  Current step  : 0
  Time step     : 0.001
Per MPI rank memory allocation (min/avg/max) = 13.83 | 13.83 | 13.83 Mbytes
   Step         PotEng         KinEng         TotEng           Lx             Ly             Lz      
         0  -141135.82      738.29517     -140397.53      200            200            824.45619    
       100  -140707.03      358.68946     -140348.34      199.99335      199.99314      824.86842    
       200  -140731.71      449.31897     -140282.39      199.98879      199.98855      825.28065    
       300  -140665.77      462.3994      -140203.37      199.99398      199.99379      825.69288    
       400  -140629.73      512.99585     -140116.73      199.98458      199.98449      826.1051     
       500  -140583.23      558.32356     -140024.91      199.98364      199.98335      826.51733    
       600  -140538.55      608.29941     -139930.25      199.98713      199.98672      826.92956    
       700  -140482.72      645.6831      -139837.04      199.9749       199.97469      827.34179    
       800  -140440.86      690.25968     -139750.6       199.97857      199.97877      827.75402    
       900  -140406.3       729.40703     -139676.9       199.97833      199.97896      828.16624    
      1000  -140376.25      750.05687     -139626.19      199.96373      199.96533      828.57847    
      1100  -140368.76      759.79889     -139608.96      199.96932      199.97174      828.9907     
      1200  -140376.91      748.12795     -139628.78      199.96436      199.96806      829.40293    
      1300  -140390.83      731.72082     -139659.11      199.95198      199.95761      829.81516    
      1400  -140391.5       720.58211     -139670.92      199.95781      199.96529      830.22738    
      1500  -140382.03      729.06846     -139652.97      199.94711      199.95649      830.63961    
      1600  -140369.3       747.9495      -139621.35      199.93835      199.95017      831.05184    
      1700  -140353.55      751.71423     -139601.84      199.94329      199.9583       831.46407    
      1800  -140349.42      742.32175     -139607.1       199.92809      199.94632      831.8763     
      1900  -140355.99      729.94201     -139626.04      199.92102      199.94274      832.28852    
      2000  -140364.4       729.22653     -139635.18      199.92342      199.94835      832.70075    
      2100  -140359.23      737.29886     -139621.93      199.90649      199.93538      833.11298    
      2200  -140333.44      735.42169     -139598.02      199.90365      199.93675      833.52521    
      2300  -140329.08      750.61167     -139578.47      199.90107      199.93834      833.93744    
      2400  -140322.29      745.96841     -139576.32      199.88304      199.92486      834.34967    
      2500  -140324.81      737.60896     -139587.2       199.88167      199.92821      834.76189    
      2600  -140325.98      732.49539     -139593.48      199.87481      199.92649      835.17412    
      2700  -140318.05      732.76501     -139585.28      199.85726      199.91392      835.58635    
      2800  -140302.08      738.94623     -139563.13      199.85643      199.91757      835.99858    
      2900  -140280.72      741.08615     -139539.63      199.84649      199.91254      836.41081    
      3000  -140280.64      749.7922      -139530.84      199.83087      199.90177      836.82303    
      3100  -140279.45      740.78349     -139538.67      199.82969      199.90533      837.23526    
      3200  -140279.43      734.04152     -139545.39      199.81634      199.89632      837.64749    
      3300  -140264.89      726.05396     -139538.83      199.80305      199.88701      838.05972    
      3400  -140254.78      735.48295     -139519.3       199.80225      199.89026      838.47195    
      3500  -140243.32      746.82832     -139496.5       199.78614      199.87821      838.88417    
      3600  -140230.23      745.38533     -139484.84      199.77506      199.87056      839.2964     
      3700  -140223.71      737.9913      -139485.72      199.77271      199.87141      839.70863    
      3800  -140223.13      734.88744     -139488.24      199.7553       199.85668      840.12086    
      3900  -140209.76      726.65455     -139483.1       199.74729      199.85151      840.53309    
      4000  -140204.12      736.7463      -139467.37      199.74375      199.85006      840.94531    
      4100  -140191.53      744.72748     -139446.8       199.72539      199.83348      841.35754    
      4200  -140174.13      739.95449     -139434.18      199.72015      199.82911      841.76977    
      4300  -140171.08      741.18321     -139429.9       199.71433      199.82352      842.182      
      4400  -140170.15      741.69588     -139428.46      199.69659      199.80662      842.59423    
      4500  -140155.6       732.81168     -139422.79      199.69149      199.80253      843.00646    
      4600  -140145.28      738.57715     -139406.7       199.68253      199.79347      843.41868    
      4700  -140126.17      740.98833     -139385.18      199.66625      199.77672      843.83091    
      4800  -140111.87      742.36087     -139369.51      199.66268      199.77345      844.24314    
      4900  -140108.39      745.57953     -139362.82      199.65073      199.76171      844.65537    
      5000  -140091.35      729.16835     -139362.18      199.63445      199.74523      845.0676     
      5100  -140086.12      729.25346     -139356.87      199.63014      199.7406       845.47982    
      5200  -140076.86      737.41385     -139339.45      199.61632      199.72708      845.89205    
      5300  -140056.63      739.42629     -139317.21      199.60088      199.71212      846.30428    
      5400  -140040.04      742.77285     -139297.27      199.59512      199.70656      846.71651    
      5500  -140024.5       738.65676     -139285.84      199.57987      199.69156      847.12874    
      5600  -140021.78      738.67896     -139283.1       199.56545      199.67746      847.54096    
      5700  -140013.78      733.95623     -139279.82      199.55861      199.67141      847.95319    
      5800  -140001.66      736.06327     -139265.59      199.54088      199.65481      848.36542    
      5900  -139975.05      732.77275     -139242.28      199.52672      199.6421       848.77765    
      6000  -139958.26      739.66224     -139218.6       199.51831      199.63511      849.18988    
      6100  -139948.61      744.44678     -139204.17      199.49904      199.61794      849.6021     
      6200  -139935.35      735.7529      -139199.6       199.4843       199.60603      850.01433    
      6300  -139928.5       731.981       -139196.51      199.47381      199.5981       850.42656    
      6400  -139920.1       735.32262     -139184.78      199.45307      199.58016      850.83879    
      6500  -139898.62      734.30084     -139164.32      199.43862      199.56934      851.25102    
      6600  -139878.01      738.8817      -139139.12      199.42564      199.56039      851.66325    
      6700  -139862.92      744.27257     -139118.65      199.40364      199.54271      852.07547    
      6800  -139850.97      742.31149     -139108.66      199.38873      199.53206      852.4877     
      6900  -139839.39      734.99339     -139104.4       199.37386      199.52178      852.89993    
      7000  -139830.56      734.46355     -139096.1       199.351        199.50411      853.31216    
      7100  -139809.13      730.41201     -139078.72      199.33552      199.49388      853.72439    
      7200  -139786.52      734.39562     -139052.12      199.31881      199.48236      854.13661    
      7300  -139766.64      740.20515     -139026.43      199.2957       199.46411      854.54884    
      7400  -139754.22      745.00056     -139009.22      199.27993      199.45381      854.96107    
      7500  -139743.91      742.3886      -139001.52      199.26211      199.44141      855.3733     
      7600  -139728.97      734.0139      -138994.96      199.23782      199.42211      855.78553    
      7700  -139712.09      731.12672     -138980.96      199.22194      199.41119      856.19775    
      7800  -139690.96      734.06193     -138956.89      199.20278      199.39695      856.60998    
      7900  -139673.41      744.83355     -138928.58      199.17838      199.37745      857.02221    
      8000  -139644.48      738.27379     -138906.21      199.16272      199.36673      857.43444    
      8100  -139636.09      742.6497      -138893.44      199.14149      199.35027      857.84667    
      8200  -139620.62      736.05403     -138884.57      199.11696      199.3302       858.25889    
      8300  -139604.29      730.87716     -138873.41      199.10151      199.31928      858.67112    
      8400  -139588.22      735.43051     -138852.79      199.07819      199.30059      859.08335    
      8500  -139569.19      743.65211     -138825.54      199.05396      199.28058      859.49558    
      8600  -139540.21      739.80345     -138800.41      199.03857      199.26906      859.90781    
      8700  -139521.69      739.53566     -138782.15      199.01402      199.24803      860.32004    
      8800  -139510.8       738.6554      -138772.14      198.99047      199.22801      860.73226    
      8900  -139494.88      734.45383     -138760.43      198.97356      199.21477      861.14449    
      9000  -139474.19      735.33477     -138738.86      198.94823      199.19236      861.55672    
      9100  -139449.68      737.76096     -138711.92      198.9261       199.17283      861.96895    
      9200  -139427.32      741.30045     -138686.02      198.90783      199.15731      862.38118    
      9300  -139405.28      738.82466     -138666.45      198.88173      199.13352      862.7934     
      9400  -139392.68      739.18622     -138653.5       198.85973      199.11355      863.20563    
      9500  -139373.83      732.96079     -138640.87      198.8405       199.09597      863.61786    
      9600  -139356.37      735.29672     -138621.08      198.81349      199.07071      864.03009    
      9700  -139327.23      732.68299     -138594.55      198.79203      199.05103      864.44232    
      9800  -139309.71      742.93596     -138566.77      198.77162      199.03211      864.85454    
      9900  -139289.64      746.0332      -138543.61      198.74435      199.00595      865.26677    
     10000  -139269.77      742.11158     -138527.66      198.72302      198.98592      865.679      
     10100  -139248.29      736.20842     -138512.08      198.70121      198.96526      866.09123    
     10200  -139228.6       737.44931     -138491.15      198.67355      198.93902      866.50346    
     10300  -139204.42      738.56002     -138465.86      198.65295      198.91969      866.91568    
     10400  -139178.48      739.79786     -138438.68      198.62975      198.89729      867.32791    
     10500  -139151.58      737.4651      -138414.11      198.60186      198.8708       867.74014    
     10600  -139141.43      746.32255     -138395.1       198.58119      198.85158      868.15237    
     10700  -139115.1       737.34599     -138377.76      198.55635      198.82831      868.5646     
     10800  -139095.17      737.87392     -138357.3       198.52847      198.80168      868.97683    
     10900  -139070.39      737.55863     -138332.83      198.50777      198.78267      869.38905    
     11000  -139044.2       738.66304     -138305.54      198.48174      198.75876      869.80128    
     11100  -139019.91      739.30667     -138280.6       198.45415      198.73292      870.21351    
     11200  -138998.73      738.85585     -138259.87      198.43279      198.71363      870.62574    
     11300  -138981.1       740.32944     -138240.77      198.40533      198.68867      871.03797    
     11400  -138955.99      737.198       -138218.79      198.37778      198.66405      871.45019    
     11500  -138927.06      734.77039     -138192.29      198.35554      198.64509      871.86242    
     11600  -138908.67      745.99825     -138162.67      198.32675      198.62         872.27465    
     11700  -138871.63      735.12656     -138136.5       198.30001      198.59709      872.68688    
     11800  -138853.89      738.87837     -138115.02      198.2766       198.57781      873.09911    
     11900  -138827.23      732.82393     -138094.41      198.24683      198.55269      873.51133    
     12000  -138807.94      736.40927     -138071.53      198.22022      198.53075      873.92356    
     12100  -138785.47      741.92755     -138043.55      198.19604      198.51126      874.33579    
     12200  -138756.74      744.65072     -138012.09      198.16573      198.4863       874.74802    
     12300  -138724.66      740.9779      -137983.68      198.13967      198.46519      875.16025    
     12400  -138698.96      739.31241     -137959.65      198.1142       198.44494      875.57247    
     12500  -138684.57      745.82523     -137938.75      198.08483      198.42061      875.9847     
     12600  -138656.19      736.50599     -137919.69      198.05988      198.40091      876.39693    
     12700  -138630.09      734.89107     -137895.2       198.03336      198.37941      876.80916    
     12800  -138594.93      731.57807     -137863.35      198.00456      198.35581      877.22139    
     12900  -138573.62      742.93188     -137830.69      197.98022      198.33673      877.63362    
     13000  -138543.23      741.37836     -137801.85      197.95306      198.31464      878.04584    
     13100  -138516.94      737.03783     -137779.91      197.92564      198.29207      878.45807    
     13200  -138488.83      728.96026     -137759.87      197.90152      198.27255      878.8703     
     13300  -138468.57      733.90511     -137734.66      197.87471      198.25026      879.28253    
     13400  -138443.28      739.71221     -137703.57      197.84896      198.22894      879.69476    
     13500  -138410.52      741.59067     -137668.93      197.82516      198.20877      880.10698    
     13600  -138381.73      745.24318     -137636.49      197.79938      198.18621      880.51921    
     13700  -138349.14      737.13241     -137612.01      197.77618      198.16558      880.93144    
     13800  -138327.07      735.85975     -137591.21      197.75223      198.14446      881.34367    
     13900  -138302.03      734.16264     -137567.87      197.72795      198.12207      881.7559     
     14000  -138271         733.87396     -137537.13      197.70575      198.10134      882.16812    
     14100  -138242.25      740.88603     -137501.37      197.68279      198.07961      882.58035    
     14200  -138211.04      741.12493     -137469.91      197.66055      198.05841      882.99258    
     14300  -138190.08      745.43484     -137444.64      197.63879      198.03745      883.40481    
     14400  -138158.79      735.96243     -137422.83      197.61732      198.01597      883.81704    
     14500  -138130.89      734.54849     -137396.34      197.59626      197.99465      884.22926    
     14600  -138094.64      730.89367     -137363.74      197.57546      197.97399      884.64149    
     14700  -138072.83      746.56149     -137326.27      197.55457      197.95267      885.05372    
     14800  -138039.41      744.79224     -137294.62      197.53512      197.93242      885.46595    
     14900  -138009.24      738.86828     -137270.37      197.51504      197.91146      885.87818    
     15000  -137984.41      732.81057     -137251.6       197.49493      197.89061      886.29041    
     15100  -137955.21      734.61518     -137220.59      197.47614      197.87147      886.70263    
     15200  -137913.31      729.39751     -137183.91      197.45634      197.85084      887.11486    
     15300  -137887.62      739.30936     -137148.31      197.43799      197.83132      887.52709    
     15400  -137853.92      737.20887     -137116.71      197.42085      197.8137       887.93932    
     15500  -137832.31      742.82385     -137089.49      197.40089      197.79377      888.35155    
     15600  -137807.45      737.10478     -137070.34      197.383        197.7755       888.76377    
     15700  -137771.54      731.23685     -137040.3       197.36652      197.75866      889.176      
     15800  -137737.46      735.52221     -137001.94      197.3472       197.74001      889.58823    
     15900  -137698.88      732.48624     -136966.4       197.33008      197.72388      890.00046    
     16000  -137675.07      743.04994     -136932.02      197.31344      197.70827      890.41269    
     16100  -137638.3       740.02753     -136898.27      197.29546      197.69116      890.82491    
     16200  -137607.55      741.37002     -136866.18      197.27888      197.67648      891.23714    
     16300  -137574.52      734.87744     -136839.65      197.26161      197.66163      891.64937    
     16400  -137545.99      732.90458     -136813.09      197.24335      197.64614      892.0616     
     16500  -137516.15      737.51773     -136778.64      197.22732      197.63246      892.47383    
     16600  -137479.65      743.49496     -136736.16      197.21049      197.61898      892.88605    
     16700  -137436.52      734.94526     -136701.57      197.19239      197.60468      893.29828    
     16800  -137406.6       735.00012     -136671.6       197.17633      197.59219      893.71051    
     16900  -137382.51      740.43887     -136642.07      197.15989      197.57949      894.12274    
     17000  -137351.31      735.3244      -136615.99      197.14284      197.5664       894.53497    
     17100  -137321.27      727.03651     -136594.23      197.12689      197.55521      894.9472     
     17200  -137286.74      731.23549     -136555.51      197.11083      197.54375      895.35942    
     17300  -137246.89      732.8296      -136514.06      197.0944       197.53148      895.77165    
     17400  -137209.41      734.23346     -136475.17      197.07878      197.52042      896.18388    
     17500  -137179.86      742.59987     -136437.26      197.06354      197.51         896.59611    
     17600  -137140.94      739.45425     -136401.49      197.04738      197.49835      897.00834    
     17700  -137105.64      735.30302     -136370.34      197.03285      197.48752      897.42056    
     17800  -137078.94      733.08912     -136345.85      197.01838      197.4768       897.83279    
     17900  -137048.22      734.71587     -136313.5       197.0027       197.465        898.24502    
     18000  -137006.67      735.3467      -136271.32      196.98933      197.45512      898.65725    
     18100  -136970.34      740.12866     -136230.21      196.97585      197.44434      899.06948    
     18200  -136936.7       740.07187     -136196.62      196.96111      197.43196      899.4817     
     18300  -136902.17      735.89439     -136166.27      196.94943      197.42253      899.89393    
     18400  -136870.95      735.95378     -136134.99      196.936        197.41086      900.30616    
     18500  -136835.54      735.23573     -136100.31      196.92236      197.39836      900.71839    
     18600  -136797.09      740.39097     -136056.7       196.91216      197.38863      901.13062    
     18700  -136757.88      742.54964     -136015.33      196.90022      197.37734      901.54284    
     18800  -136727.01      744.72729     -135982.28      196.88795      197.3652       901.95507    
     18900  -136693.91      738.01611     -135955.89      196.87881      197.35539      902.3673     
     19000  -136659.87      735.36188     -135924.51      196.86865      197.34389      902.77953    
     19100  -136623.78      737.56249     -135886.22      196.85751      197.3308       903.19176    
     19200  -136583.67      737.46982     -135846.2       196.84901      197.32026      903.60399    
     19300  -136543.18      735.55949     -135807.62      196.84013      197.30825      904.01621    
     19400  -136509.04      737.62993     -135771.41      196.83009      197.29491      904.42844    
     19500  -136477.34      741.68128     -135735.66      196.82219      197.2837       904.84067    
     19600  -136430.19      730.89041     -135699.3       196.81356      197.27157      905.2529     
     19700  -136394.56      735.36374     -135659.19      196.80414      197.25849      905.66513    
     19800  -136363.38      747.61226     -135615.77      196.79695      197.24759      906.07735    
     19900  -136320.24      739.797       -135580.45      196.78848      197.23568      906.48958    
     20000  -136291.37      738.52324     -135552.85      196.7789       197.22254      906.90181    
     20100  -136250.34      730.81996     -135519.52      196.77149      197.21186      907.31404    
     20200  -136215.07      735.96462     -135479.1       196.76291      197.20017      907.72627    
     20300  -136175.36      739.13995     -135436.22      196.75341      197.18799      908.13849    
     20400  -136130.94      733.68191     -135397.26      196.74633      197.17867      908.55072    
     20500  -136100.14      740.7315      -135359.41      196.73713      197.16713      908.96295    
     20600  -136060.27      738.20449     -135322.06      196.72727      197.15525      909.37518    
     20700  -136022.65      737.41565     -135285.24      196.72007      197.14661      909.78741    
     20800  -135987.81      739.30231     -135248.5       196.71039      197.13607      910.19963    
     20900  -135947.27      737.61165     -135209.66      196.70027      197.12492      910.61186    
     21000  -135906.71      739.73886     -135166.97      196.69246      197.11694      911.02409    
     21100  -135864.48      742.94715     -135121.53      196.68159      197.10656      911.43632    
     21200  -135825.43      742.64963     -135082.78      196.67129      197.09721      911.84855    
     21300  -135797.9       741.4173      -135056.48      196.66281      197.08988      912.26078    
     21400  -135753.58      732.60432     -135020.97      196.65096      197.08004      912.673      
     21500  -135718.82      742.2407      -134976.58      196.63984      197.07159      913.08523    
     21600  -135664.1       733.09814     -134931         196.63084      197.06532      913.49746    
     21700  -135631.21      741.76736     -134889.45      196.61832      197.0559       913.90969    
     21800  -135590.19      738.74792     -134851.44      196.60655      197.04796      914.32192    
     21900  -135555.92      741.80038     -134814.12      196.5962       197.04187      914.73414    
     22000  -135518.42      742.43891     -134775.98      196.58306      197.03294      915.14637    
     22100  -135475.95      739.44532     -134736.5       196.57058      197.02497      915.5586     
     22200  -135424.47      738.08723     -134686.38      196.55963      197.01899      915.97083    
     22300  -135386.61      746.23285     -134640.38      196.54616      197.01066      916.38306    
     22400  -135346.94      739.88134     -134607.06      196.53321      197.00251      916.79528    
     22500  -135308.06      731.62878     -134576.43      196.52211      196.99649      917.20751    
     22600  -135270.28      730.03277     -134540.25      196.50891      196.98833      917.61974    
     22700  -135230.7       734.5291      -134496.17      196.49535      196.97996      918.03197    
     22800  -135185.46      739.54114     -134445.92      196.48469      196.97353      918.4442     
     22900  -135145.82      741.84157     -134403.98      196.47195      196.96506      918.85642    
     23000  -135106.96      741.82873     -134365.14      196.45861      196.95592      919.26865    
     23100  -135065.83      736.16771     -134329.66      196.44891      196.94944      919.68088    
     23200  -135030.3       731.61457     -134298.68      196.4365       196.93961      920.09311    
     23300  -134990.88      731.48519     -134259.39      196.42385      196.92917      920.50534    
     23400  -134941.17      735.75207     -134205.41      196.41495      196.92234      920.91757    
     23500  -134901.32      741.43852     -134159.88      196.40364      196.91244      921.32979    
     23600  -134861.16      745.28024     -134115.88      196.39162      196.90096      921.74202    
     23700  -134813.59      739.16537     -134074.43      196.38283      196.89276      922.15425    
     23800  -134775.12      738.29817     -134036.82      196.3714       196.88147      922.56648    
     23900  -134743.3       742.82138     -134000.48      196.3599       196.86918      922.97871    
     24000  -134691.33      731.40136     -133959.93      196.35236      196.86064      923.39093    
     24100  -134643.81      735.85635     -133907.95      196.34188      196.8485       923.80316    
     24200  -134602.97      742.92571     -133860.05      196.33061      196.8352       924.21539    
     24300  -134554.86      736.98762     -133817.87      196.32307      196.82525      924.62762    
     24400  -134517.82      740.11242     -133777.71      196.31314      196.81245      925.03985    
     24500  -134473.83      732.24376     -133741.59      196.30257      196.79861      925.45207    
     24600  -134437.64      733.42419     -133704.22      196.29537      196.78791      925.8643     
     24700  -134386.34      733.1729      -133653.16      196.28492      196.77356      926.27653    
     24800  -134339.92      736.6141      -133603.31      196.27488      196.75925      926.68876    
     24900  -134302.73      743.30034     -133559.42      196.26775      196.74824      927.10099    
     25000  -134261.41      744.75435     -133516.66      196.25705      196.73324      927.51321    
     25100  -134211.87      734.21247     -133477.65      196.24749      196.71925      927.92544    
     25200  -134175.02      733.5761      -133441.44      196.23961      196.70717      928.33767    
     25300  -134133.16      734.63842     -133398.52      196.2282       196.6919       928.7499     
     25400  -134082.28      738.92145     -133343.36      196.21823      196.67835      929.16213    
     25500  -134034.61      738.86654     -133295.74      196.20972      196.66609      929.57436    
     25600  -133991.77      738.9295      -133252.84      196.19823      196.65144      929.98658    
     25700  -133949.01      734.45605     -133214.56      196.18736      196.63816      930.39881    
     25800  -133911.44      735.12009     -133176.32      196.177        196.62533      930.81104    
     25900  -133863.1       733.31614     -133129.78      196.16536      196.61158      931.22327    
     26000  -133810.76      736.53188     -133074.23      196.15414      196.59903      931.6355     
     26100  -133771.55      745.03612     -133026.51      196.14196      196.58623      932.04772    
     26200  -133725.16      740.01291     -132985.15      196.1297       196.57339      932.45995    
     26300  -133683.15      733.99338     -132949.16      196.11713      196.56104      932.87218    
     26400  -133641.18      731.81374     -132909.37      196.10373      196.54883      933.28441    
     26500  -133588.58      734.64457     -132853.93      196.09044      196.53712      933.69664    
     26600  -133543.83      741.95588     -132801.88      196.07719      196.52578      934.10886    
     26700  -133503.01      743.07811     -132759.93      196.06245      196.51366      934.52109    
     26800  -133456.95      734.35912     -132722.59      196.04807      196.5026       934.93332    
     26900  -133415.14      734.22459     -132680.92      196.03361      196.49154      935.34555    
     27000  -133367.45      739.42402     -132628.02      196.01764      196.47966      935.75778    
     27100  -133316.74      741.77351     -132574.96      196.00256      196.46919      936.17       
     27200  -133269.45      739.14666     -132530.3       195.98733      196.45842      936.58223    
     27300  -133223.05      734.10429     -132488.94      195.97055      196.44671      936.99446    
     27400  -133185.91      736.6189      -132449.29      195.95485      196.43616      937.40669    
     27500  -133139.16      731.54166     -132407.62      195.93917      196.42523      937.81892    
     27600  -133094.23      737.42435     -132356.81      195.92253      196.414        938.23115    
     27700  -133043.6       742.44984     -132301.15      195.90613      196.4029       938.64337    
     27800  -132996.66      743.48451     -132253.17      195.89035      196.39182      939.0556     
     27900  -132952.99      742.88933     -132210.1       195.87398      196.38021      939.46783    
     28000  -132909.51      736.51963     -132172.99      195.85765      196.36883      939.88006    
     28100  -132858.95      727.76297     -132131.19      195.84164      196.35728      940.29229    
     28200  -132812.47      739.01637     -132073.46      195.82565      196.3449       940.70451    
     28300  -132756.27      735.14105     -132021.13      195.81013      196.33277      941.11674    
     28400  -132713.78      739.78627     -131974         195.79427      196.32024      941.52897    
     28500  -132663.45      736.01272     -131927.44      195.77801      196.30663      941.9412     
     28600  -132615.96      733.78646     -131882.17      195.76325      196.29342      942.35343    
     28700  -132574.78      734.78325     -131840         195.74748      196.27951      942.76565    
     28800  -132530.46      734.49069     -131795.97      195.73102      196.26415      943.17788    
     28900  -132473.62      732.85536     -131740.77      195.71674      196.25029      943.59011    
     29000  -132427.05      740.20878     -131686.84      195.70226      196.23579      944.00234    
     29100  -132385.06      744.74646     -131640.31      195.68617      196.21885      944.41457    
     29200  -132331.8       733.09035     -131598.71      195.67241      196.20364      944.82679    
     29300  -132285.79      725.75201     -131560.04      195.65842      196.18825      945.23902    
     29400  -132254.15      733.96942     -131520.18      195.64289      196.17069      945.65125    
     29500  -132198.23      733.93448     -131464.29      195.62916      196.15417      946.06348    
     29600  -132149.39      743.12401     -131406.26      195.61557      196.13716      946.47571    
     29700  -132091.63      738.03415     -131353.6       195.60118      196.11909      946.88794    
     29800  -132045.55      741.38815     -131304.16      195.58813      196.1019       947.30016    
     29900  -131999.52      739.87745     -131259.64      195.57439      196.08386      947.71239    
     30000  -131949.4       730.00058     -131219.4       195.5603       196.06476      948.12462    
     30100  -131911.02      735.7187      -131175.31      195.54727      196.04653      948.53685    
     30200  -131847.87      730.57656     -131117.29      195.53372      196.02797      948.94908    
     30300  -131801.97      740.13431     -131061.84      195.51945      196.00818      949.3613     
     30400  -131756.54      741.7772      -131014.76      195.50661      195.99017      949.77353    
     30500  -131707.84      735.77491     -130972.07      195.49297      195.97148      950.18576    
     30600  -131661.85      732.43938     -130929.41      195.47815      195.9515       950.59799    
     30700  -131617.83      735.19051     -130882.63      195.465        195.93336      951.01022    
     30800  -131558.03      734.16021     -130823.87      195.45103      195.9154       951.42244    
     30900  -131507.93      738.81548     -130769.11      195.43539      195.89606      951.83467    
     31000  -131459.32      740.48454     -130718.84      195.42089      195.87831      952.2469     
     31100  -131406.29      734.69255     -130671.6       195.40615      195.86056      952.65913    
     31200  -131360.96      733.44629     -130627.51      195.38957      195.84195      953.07136    
     31300  -131318.07      732.75837     -130585.31      195.3741       195.82552      953.48358    
     31400  -131266.95      732.98478     -130533.96      195.35716      195.8074       953.89581    
     31500  -131214.94      740.88771     -130474.05      195.33974      195.78951      954.30804    
     31600  -131160.82      739.11693     -130421.71      195.32318      195.77366      954.72027    
     31700  -131114.92      742.52919     -130372.39      195.3052       195.75673      955.1325     
     31800  -131060.99      735.29647     -130325.69      195.28644      195.7396       955.54473    
     31900  -131011.55      727.91191     -130283.64      195.26883      195.72432      955.95695    
     32000  -130968.72      730.97838     -130237.74      195.24943      195.70813      956.36918    
     32100  -130916.59      738.67976     -130177.91      195.22947      195.69181      956.78141    
     32200  -130860.18      737.51491     -130122.66      195.21151      195.67739      957.19364    
     32300  -130813.14      740.98469     -130072.15      195.19075      195.66124      957.60587    
     32400  -130768.21      744.12917     -130024.09      195.16995      195.64552      958.01809    
     32500  -130713.68      731.40478     -129982.28      195.15145      195.6312       958.43032    
     32600  -130670.83      734.2553      -129936.58      195.12988      195.61463      958.84255    
     32700  -130614.8       738.72464     -129876.07      195.10873      195.5994       959.25478    
     32800  -130557.61      737.62024     -129819.99      195.08973      195.58539      959.66701    
     32900  -130509.64      739.88468     -129769.75      195.0679       195.56865      960.07923    
     33000  -130461.87      740.7608      -129721.11      195.04661      195.55298      960.49146    
     33100  -130408.2       735.56679     -129672.64      195.02721      195.53916      960.90369    
     33200  -130356.77      736.32223     -129620.45      195.00592      195.52251      961.31592    
     33300  -130299.58      735.69589     -129563.88      194.985        195.50661      961.72815    
     33400  -130249.71      740.63329     -129509.07      194.96539      195.49233      962.14037    
     33500  -130198.49      739.43672     -129459.05      194.94401      195.4753       962.5526     
     33600  -130155.06      736.70782     -129418.35      194.92374      195.45886      962.96483    
     33700  -130107.12      735.41035     -129371.71      194.90446      195.44386      963.37706    
     33800  -130043.45      729.52944     -129313.92      194.88365      195.42667      963.78929    
     33900  -129996.95      739.38085     -129257.57      194.86454      195.4098       964.20152    
     34000  -129946.92      739.18368     -129207.74      194.84638      195.39371      964.61374    
     34100  -129895.18      735.7666      -129159.41      194.82581      195.375        965.02597    
     34200  -129845.93      735.00328     -129110.93      194.80688      195.35755      965.4382     
     34300  -129788.02      727.39355     -129060.63      194.78986      195.3408       965.85043    
     34400  -129742.68      739.17918     -129003.5       194.77031      195.32103      966.26266    
     34500  -129685.87      740.69571     -128945.18      194.75245      195.30273      966.67488    
     34600  -129634.09      741.74767     -128892.34      194.73657      195.28541      967.08711    
     34700  -129588.39      741.64675     -128846.74      194.71859      195.26462      967.49934    
     34800  -129537.34      731.60151     -128805.74      194.70137      195.24516      967.91157    
     34900  -129483.13      731.88385     -128751.24      194.68616      195.227        968.3238     
     35000  -129431.69      738.39702     -128693.29      194.66971      195.20625      968.73602    
     35100  -129374.84      737.82498     -128637.01      194.65266      195.18528      969.14825    
     35200  -129321.65      739.83507     -128581.81      194.63828      195.1667       969.56048    
     35300  -129265.59      738.86814     -128526.72      194.62259      195.14603      969.97271    
     35400  -129213.58      742.96516     -128470.62      194.60595      195.12362      970.38494    
     35500  -129158.16      742.23675     -128415.93      194.59191      195.10442      970.79716    
     35600  -129107.62      737.01542     -128370.61      194.57639      195.0836       971.20939    
     35700  -129060.55      733.44303     -128327.11      194.55963      195.06097      971.62162    
     35800  -129012.34      737.35622     -128274.99      194.54568      195.04128      972.03385    
     35900  -128958.11      740.80535     -128217.3       194.53082      195.02154      972.44608    
     36000  -128905.04      748.43292     -128156.6       194.51386      194.99919      972.85831    
     36100  -128842.45      739.73276     -128102.71      194.49915      194.97883      973.27053    
     36200  -128795.09      742.21923     -128052.87      194.48384      194.95905      973.68276    
     36300  -128740.22      735.49566     -128004.73      194.46728      194.93814      974.09499    
     36400  -128692.36      736.23386     -127956.13      194.45192      194.91861      974.50722    
     36500  -128641.23      739.4133      -127901.82      194.43558      194.89902      974.91945    
     36600  -128580.9       741.30621     -127839.59      194.41916      194.87986      975.33167    
     36700  -128522.5       738.52146     -127783.97      194.40226      194.86074      975.7439     
     36800  -128465.76      730.0961      -127735.66      194.38537      194.84188      976.15613    
     36900  -128430.64      739.1499      -127691.49      194.36888      194.82432      976.56836    
     37000  -128374.57      733.11436     -127641.46      194.35132      194.80628      976.98059    
     37100  -128316.36      730.65675     -127585.71      194.3327       194.78758      977.39281    
     37200  -128267.29      740.3705      -127526.92      194.31556      194.77135      977.80504    
     37300  -128212.24      743.75818     -127468.48      194.29788      194.75551      978.21727    
     37400  -128150.68      738.07349     -127412.61      194.27785      194.7379       978.6295     
     37500  -128097.3       737.31487     -127359.98      194.2603       194.72284      979.04173    
     37600  -128047.11      734.78362     -127312.32      194.24192      194.70818      979.45395    
     37700  -127993.19      729.33036     -127263.86      194.22145      194.69188      979.86618    
     37800  -127937.92      731.94126     -127205.98      194.20276      194.67712      980.27841    
     37900  -127885.67      741.85972     -127143.81      194.18463      194.66386      980.69064    
     38000  -127830.52      740.1721      -127090.35      194.16397      194.64908      981.10287    
     38100  -127778.3       738.43744     -127039.86      194.14368      194.63389      981.5151     
     38200  -127724.42      732.93702     -126991.49      194.12495      194.62091      981.92732    
     38300  -127678.66      730.603       -126948.06      194.10447      194.60697      982.33955    
     38400  -127623.33      731.26921     -126892.06      194.08412      194.59291      982.75178    
     38500  -127564.54      736.09075     -126828.45      194.06539      194.57992      983.16401    
     38600  -127509.5       738.80725     -126770.69      194.04542      194.56608      983.57624    
     38700  -127452.27      738.93242     -126713.34      194.02512      194.55229      983.98846    
     38800  -127395.07      737.70031     -126657.37      194.00617      194.53858      984.40069    
     38900  -127345.87      741.91659     -126603.95      193.98651      194.52441      984.81292    
     39000  -127297.81      740.45227     -126557.36      193.9672       194.51056      985.22515    
     39100  -127238.27      730.18936     -126508.08      193.94865      194.49661      985.63738    
     39200  -127185.01      737.40098     -126447.61      193.92965      194.48141      986.0496     
     39300  -127125.28      739.30624     -126385.97      193.91127      194.46686      986.46183    
     39400  -127074.49      742.25253     -126332.24      193.89381      194.45289      986.87406    
     39500  -127020.36      738.19197     -126282.17      193.87619      194.43716      987.28629    
     39600  -126968.06      733.697       -126234.36      193.85898      194.42158      987.69852    
     39700  -126920.25      731.16738     -126189.09      193.84306      194.40692      988.11074    
     39800  -126861.04      730.03186     -126131.01      193.82594      194.39025      988.52297    
     39900  -126796.29      731.13537     -126065.16      193.80977      194.37392      988.9352     
     40000  -126746.49      741.00799     -126005.48      193.79535      194.35871      989.34743    
     40100  -126686.74      741.10898     -125945.63      193.77973      194.34177      989.75966    
     40200  -126634.49      744.29201     -125890.2       193.76492      194.32459      990.17189    
     40300  -126578.01      736.55261     -125841.46      193.75112      194.30822      990.58411    
     40400  -126527.53      731.00597     -125796.53      193.73662      194.29081      990.99634    
     40500  -126475.88      734.85544     -125741.02      193.72243      194.27319      991.40857    
     40600  -126417.09      737.6952      -125679.4       193.70969      194.25621      991.8208     
     40700  -126358.92      736.97035     -125621.95      193.69635      194.23882      992.23303    
     40800  -126302.24      735.67834     -125566.56      193.68328      194.22091      992.64525    
     40900  -126252.19      738.96929     -125513.22      193.67109      194.20364      993.05748    
     41000  -126200.78      737.31088     -125463.47      193.65835      194.18574      993.46971    
     41100  -126150.44      735.98579     -125414.45      193.64593      194.16783      993.88194    
     41200  -126092.71      735.49904     -125357.21      193.63465      194.15106      994.29417    
     41300  -126028.01      737.19022     -125290.82      193.62228      194.13286      994.70639    
     41400  -125969.09      736.45419     -125232.64      193.60974      194.11482      995.11862    
     41500  -125914.46      734.93437     -125179.52      193.59873      194.09824      995.53085    
     41600  -125861.67      730.59601     -125131.08      193.58632      194.08033      995.94308    
     41700  -125818.7       736.78311     -125081.92      193.57346      194.06211      996.35531    
     41800  -125755.06      733.18903     -125021.87      193.56292      194.04646      996.76753    
     41900  -125691.85      736.53104     -124955.32      193.55039      194.02909      997.17976    
     42000  -125633.89      737.11142     -124896.77      193.53676      194.01122      997.59199    
     42100  -125584.74      743.47172     -124841.27      193.52525      193.99592      998.00422    
     42200  -125527.01      734.64006     -124792.37      193.51312      193.98014      998.41645    
     42300  -125479.59      734.22881     -124745.36      193.499        193.96348      998.82868    
     42400  -125424.4       736.53358     -124687.87      193.48603      193.94828      999.2409     
     42500  -125363.76      737.26238     -124626.5       193.47333      193.93352      999.65313    
     42600  -125308.74      740.01132     -124568.73      193.45884      193.91784      1000.0654    
     42700  -125251.2       738.73889     -124512.46      193.44475      193.90367      1000.4776    
     42800  -125192.89      736.90968     -124455.98      193.43155      193.89012      1000.8898    
     42900  -125138.43      741.65491     -124396.78      193.41702      193.87624      1001.302     
     43000  -125080.71      740.67819     -124340.04      193.40159      193.86268      1001.7143    
     43100  -125027.25      736.99015     -124290.26      193.38678      193.84955      1002.1265    
     43200  -124975.41      734.08558     -124241.33      193.37136      193.83633      1002.5387    
     43300  -124918.19      734.61097     -124183.58      193.35557      193.82349      1002.951     
     43400  -124857.77      741.67747     -124116.09      193.34017      193.81182      1003.3632    
     43500  -124802.05      744.13218     -124057.92      193.32425      193.79933      1003.7754    
     43600  -124748.24      740.49176     -124007.75      193.30869      193.78787      1004.1876    
     43700  -124701.08      742.97025     -123958.11      193.29239      193.77645      1004.5999    
     43800  -124635.55      731.76134     -123903.79      193.27549      193.76446      1005.0121    
     43900  -124582.93      740.60542     -123842.33      193.26039      193.754        1005.4243    
     44000  -124518.71      744.0298      -123774.68      193.24477      193.74402      1005.8366    
     44100  -124461.28      740.29815     -123720.98      193.22708      193.73266      1006.2488    
     44200  -124411.19      739.43435     -123671.76      193.21132      193.72191      1006.661     
     44300  -124357.23      737.76913     -123619.47      193.19578      193.71245      1007.0732    
     44400  -124299.71      736.70909     -123563         193.17769      193.70071      1007.4855    
     44500  -124236.27      735.99663     -123500.27      193.16111      193.68958      1007.8977    
     44600  -124181.19      747.55691     -123433.63      193.14684      193.68088      1008.3099    
     44700  -124120.9       740.01416     -123380.88      193.12944      193.66976      1008.7221    
     44800  -124074.98      743.50454     -123331.47      193.11181      193.65771      1009.1344    
     44900  -124014.78      736.94649     -123277.83      193.09745      193.64811      1009.5466    
     45000  -123960.43      737.56618     -123222.86      193.0819       193.63764      1009.9588    
     45100  -123903.62      736.78215     -123166.84      193.06511      193.62554      1010.3711    
     45200  -123846.78      739.13925     -123107.64      193.05076      193.61459      1010.7833    
     45300  -123787.35      740.98323     -123046.37      193.03599      193.60311      1011.1955    
     45400  -123731.05      743.04509     -122988.01      193.0198       193.58969      1011.6077    
     45500  -123676.76      740.01851     -122936.74      193.00568      193.57727      1012.02      
     45600  -123620.51      731.80516     -122888.7       192.99322      193.56613      1012.4322    
     45700  -123568.53      736.15673     -122832.38      192.97842      193.55201      1012.8444    
     45800  -123512.35      742.04588     -122770.31      192.96426      193.53789      1013.2567    
     45900  -123448.89      746.5723      -122702.32      192.95259      193.52534      1013.6689    
     46000  -123390.98      748.18599     -122642.8       192.93902      193.51017      1014.0811    
     46100  -123333.84      742.86927     -122590.97      192.92613      193.4954       1014.4933    
     46200  -123282.72      739.99676     -122542.72      192.91614      193.48251      1014.9056    
     46300  -123227.56      736.78392     -122490.78      192.904        193.46678      1015.3178    
     46400  -123171.28      739.47594     -122431.81      192.89094      193.45026      1015.73      
     46500  -123102.59      737.4292      -122365.16      192.88121      193.43666      1016.1423    
     46600  -123046.42      742.29868     -122304.12      192.87051      193.42135      1016.5545    
     46700  -122993.76      743.01103     -122250.75      192.85856      193.40451      1016.9667    
     46800  -122939.01      740.58771     -122198.42      192.84941      193.39009      1017.3789    
     46900  -122878.9       734.29031     -122144.61      192.8393       193.37448      1017.7912    
     47000  -122824.49      736.54763     -122087.94      192.82706      193.35642      1018.2034    
     47100  -122770.81      740.65918     -122030.15      192.81761      193.34112      1018.6156    
     47200  -122709.69      739.77027     -121969.92      192.80865      193.32635      1019.0279    
     47300  -122654.9       744.76841     -121910.13      192.79699      193.30822      1019.4401    
     47400  -122596.23      738.00186     -121858.23      192.78686      193.29216      1019.8523    
     47500  -122539.6       731.61505     -121807.98      192.77819      193.27761      1020.2645    
     47600  -122483.8       733.04586     -121750.75      192.76688      193.26014      1020.6768    
     47700  -122422.95      735.48941     -121687.46      192.75599      193.2437       1021.089     
     47800  -122362.39      744.92804     -121617.46      192.74714      193.22957      1021.5012    
     47900  -122307.4       746.56488     -121560.83      192.73649      193.21357      1021.9134    
     48000  -122250.92      741.38633     -121509.53      192.72473      193.19696      1022.3257    
     48100  -122188.5       731.0634      -121457.43      192.71454      193.18243      1022.7379    
     48200  -122137.32      734.92941     -121402.39      192.7043       193.16832      1023.1501    
     48300  -122082.42      737.91278     -121344.51      192.69196      193.15211      1023.5624    
     48400  -122017.11      739.53389     -121277.57      192.68047      193.13805      1023.9746    
     48500  -121964.27      750.03197     -121214.24      192.66989      193.12513      1024.3868    
     48600  -121904.87      740.0199      -121164.85      192.65607      193.10975      1024.799     
     48700  -121852.33      739.86385     -121112.47      192.64309      193.09576      1025.2113    
     48800  -121794.58      738.87031     -121055.71      192.6319       193.08406      1025.6235    
     48900  -121735.62      738.77236     -120996.84      192.61749      193.07034      1026.0357    
     49000  -121672.9       737.32022     -120935.58      192.60217      193.05668      1026.448     
     49100  -121618.08      744.40833     -120873.67      192.59027      193.04605      1026.8602    
     49200  -121556.36      737.97545     -120818.38      192.5757       193.03411      1027.2724    
     49300  -121509.71      740.5233      -120769.19      192.55914      193.021        1027.6846    
     49400  -121453.62      739.8157      -120713.8       192.54604      193.011        1028.0969    
     49500  -121395.31      742.06598     -120653.24      192.53151      193.00034      1028.5091    
     49600  -121336.29      748.4319      -120587.86      192.51354      192.98726      1028.9213    
     49700  -121267.47      747.21324     -120520.26      192.49909      192.97761      1029.3336    
     49800  -121216.44      748.08077     -120468.36      192.48364      192.96768      1029.7458    
     49900  -121166.91      747.61095     -120419.3       192.46528      192.95518      1030.158     
     50000  -121105.02      738.50868     -120366.52      192.4506       192.94661      1030.5702    
     50100  -121044.53      732.49632     -120312.04      192.43472      192.93682      1030.9825    
     50200  -120988.89      734.45249     -120254.43      192.41521      192.92358      1031.3947    
     50300  -120929.43      740.0016      -120189.43      192.40028      192.91531      1031.8069    
     50400  -120867.14      745.14198     -120122         192.38505      192.90664      1032.2192    
     50500  -120805.27      739.83005     -120065.44      192.36512      192.89325      1032.6314    
     50600  -120758.33      741.22572     -120017.1       192.34989      192.88432      1033.0436    
     50700  -120695.6       737.0919      -119958.51      192.33541      192.87644      1033.4558    
     50800  -120638.43      739.29903     -119899.13      192.31606      192.863        1033.8681    
     50900  -120582.2       743.60437     -119838.6       192.29894      192.85139      1034.2803    
     51000  -120517.07      740.05943     -119777.01      192.28622      192.84404      1034.6925    
     51100  -120456.83      735.15017     -119721.68      192.2685       192.83118      1035.1047    
     51200  -120411.17      740.7069      -119670.47      192.25086      192.8177       1035.517     
     51300  -120349.56      736.98877     -119612.57      192.23861      192.80935      1035.9292    
     51400  -120282.53      731.10572     -119551.42      192.22243      192.79679      1036.3414    
     51500  -120225.4       739.68299     -119485.72      192.20507      192.78236      1036.7537    
     51600  -120163.99      744.09874     -119419.89      192.19227      192.77127      1037.1659    
     51700  -120108.84      741.15559     -119367.68      192.17808      192.75868      1037.5781    
     51800  -120051.92      736.36907     -119315.55      192.16187      192.7435       1037.9903    
     51900  -120000.3       741.78613     -119258.51      192.14961      192.73102      1038.4026    
     52000  -119938.67      735.33216     -119203.34      192.13639      192.71682      1038.8148    
     52100  -119885.78      737.52283     -119148.26      192.12109      192.69999      1039.227     
     52200  -119829.47      738.77387     -119090.7       192.10952      192.68652      1039.6393    
     52300  -119770.98      742.53802     -119028.44      192.09821      192.67181      1040.0515    
     52400  -119701.25      738.45294     -118962.8       192.08374      192.65355      1040.4637    
     52500  -119646.03      744.44892     -118901.58      192.0721       192.63818      1040.8759    
     52600  -119593.83      743.67782     -118850.16      192.0621       192.62317      1041.2882    
     52700  -119531.53      736.19505     -118795.33      192.0489       192.60458      1041.7004    
     52800  -119469.7       735.03079     -118734.66      192.03753      192.58785      1042.1126    
     52900  -119409.59      738.45375     -118671.13      192.02842      192.57262      1042.5249    
     53000  -119356.9       744.44757     -118612.45      192.01569      192.55361      1042.9371    
     53100  -119296.88      734.96631     -118561.92      192.00339      192.53526      1043.3493    
     53200  -119237.13      733.96794     -118503.16      191.99461      192.51948      1043.7615    
     53300  -119178.21      738.97335     -118439.24      191.98307      192.50114      1044.1738    
     53400  -119111.38      741.55505     -118369.82      191.97022      192.48149      1044.586     
     53500  -119052.47      747.77437     -118304.7       191.96088      192.46539      1044.9982    
     53600  -118997.1       740.24816     -118256.85      191.94983      192.44749      1045.4105    
     53700  -118947.03      744.35454     -118202.67      191.93688      192.42812      1045.8227    
     53800  -118890.29      742.44597     -118147.85      191.92702      192.41182      1046.2349    
     53900  -118830.49      738.95799     -118091.53      191.91622      192.39504      1046.6471    
     54000  -118768.82      735.70775     -118033.11      191.90262      192.37586      1047.0594    
     54100  -118707.04      735.45118     -117971.59      191.89183      192.3599       1047.4716    
     54200  -118649.64      739.22774     -117910.41      191.88067      192.34373      1047.8838    
     54300  -118590.66      739.45665     -117851.21      191.8664       192.32512      1048.296     
     54400  -118537.43      742.68888     -117794.74      191.85419      192.30957      1048.7083    
     54500  -118473.01      734.39002     -117738.62      191.84308      192.29477      1049.1205    
     54600  -118411.86      732.8373      -117679.02      191.82783      192.27674      1049.5327    
     54700  -118354.95      741.95631     -117612.99      191.8146       192.26185      1049.945     
     54800  -118291.34      748.33937     -117543         191.8025       192.24798      1050.3572    
     54900  -118232.56      746.13648     -117486.42      191.78633      192.23115      1050.7694    
     55000  -118174.47      741.74627     -117432.72      191.77109      192.21618      1051.1816    
     55100  -118119.11      743.92341     -117375.18      191.75824      192.20369      1051.5939    
     55200  -118052.34      734.47898     -117317.86      191.74122      192.18815      1052.0061    
     55300  -117993.09      733.75681     -117259.33      191.72521      192.17435      1052.4183    
     55400  -117935.91      733.92088     -117201.98      191.71069      192.16237      1052.8306    
     55500  -117879.89      728.92903     -117150.97      191.6929       192.14758      1053.2428    
     55600  -117820.86      732.78455     -117088.08      191.67558      192.13413      1053.655     
     55700  -117762.66      741.62924     -117021.03      191.66038      192.12298      1054.0672    
     55800  -117695.42      739.599       -116955.82      191.64143      192.10849      1054.4795    
     55900  -117639.45      740.74941     -116898.7       191.62354      192.09588      1054.8917    
     56000  -117580.2       735.42287     -116844.77      191.60799      192.0855       1055.3039    
     56100  -117523.08      739.36022     -116783.72      191.58848      192.07152      1055.7162    
     56200  -117460.76      741.37881     -116719.38      191.56872      192.05769      1056.1284    
     56300  -117403.99      744.81662     -116659.18      191.55309      192.04798      1056.5406    
     56400  -117343.77      736.42238     -116607.35      191.53405      192.03513      1056.9528    
     56500  -117279.97      734.11247     -116545.86      191.51349      192.02098      1057.3651    
     56600  -117227.25      745.67595     -116481.57      191.49782      192.01113      1057.7773    
     56700  -117170.26      745.67291     -116424.58      191.47899      191.99892      1058.1895    
     56800  -117106.82      737.61695     -116369.21      191.45824      191.98463      1058.6017    
     56900  -117043.43      738.38173     -116305.05      191.44241      191.97479      1059.014     
     57000  -116984.91      743.25772     -116241.66      191.42451      191.96253      1059.4262    
     57100  -116927.23      739.74282     -116187.49      191.4041       191.94768      1059.8384    
     57200  -116867.39      738.82991     -116128.56      191.3869       191.93627      1060.2507    
     57300  -116801.36      739.45484     -116061.91      191.37003      191.92428      1060.6629    
     57400  -116738.85      741.9204      -115996.93      191.35008      191.90884      1061.0751    
     57500  -116679.58      738.0113      -115941.57      191.33251      191.89589      1061.4873    
     57600  -116615.58      731.89659     -115883.69      191.31669      191.88395      1061.8996    
     57700  -116558.29      738.89788     -115819.4       191.2979       191.86824      1062.3118    
     57800  -116497.92      740.16753     -115757.75      191.28062      191.85378      1062.724     
     57900  -116445         743.75518     -115701.25      191.26545      191.84116      1063.1363    
     58000  -116377.96      736.13486     -115641.83      191.24732      191.82465      1063.5485    
     58100  -116316.7       740.69014     -115576.01      191.23107      191.80919      1063.9607    
     58200  -116251.84      739.90191     -115511.94      191.21619      191.79508      1064.3729    
     58300  -116191.53      737.37952     -115454.15      191.19941      191.77759      1064.7852    
     58400  -116130.84      737.37511     -115393.47      191.1842       191.76113      1065.1974    
     58500  -116074.37      743.68788     -115330.68      191.17049      191.74651      1065.6096    
     58600  -116009.39      737.84414     -115271.55      191.15403      191.72793      1066.0219    
     58700  -115950.94      740.67735     -115210.26      191.1392       191.70977      1066.4341    
     58800  -115886.86      739.62896     -115147.23      191.12629      191.69401      1066.8463    
     58900  -115822.67      735.82343     -115086.84      191.1111       191.67511      1067.2585    
     59000  -115762.91      738.34532     -115024.56      191.09651      191.65584      1067.6708    
     59100  -115707.49      745.30557     -114962.18      191.08427      191.6388       1068.083     
     59200  -115644.85      742.75922     -114902.09      191.07012      191.61981      1068.4952    
     59300  -115581.48      741.91587     -114839.56      191.05537      191.59939      1068.9075    
     59400  -115521.85      745.21445     -114776.63      191.04323      191.58145      1069.3197    
     59500  -115461.98      746.15831     -114715.82      191.03009      191.5623       1069.7319    
     59600  -115394.59      740.84109     -114653.75      191.01549      191.54138      1070.1441    
     59700  -115332.85      741.45643     -114591.39      191.00374      191.52325      1070.5564    
     59800  -115274.51      744.80671     -114529.7       190.99033      191.50325      1070.9686    
     59900  -115213.83      746.76522     -114467.07      190.97554      191.48202      1071.3808    
     60000  -115147.89      742.46817     -114405.42      190.96394      191.46399      1071.793     
     60100  -115085.54      741.6228      -114343.92      190.95127      191.44488      1072.2053    
     60200  -115020.45      738.56823     -114281.88      190.93552      191.42302      1072.6175    
     60300  -114959         740.17589     -114218.82      190.92343      191.40522      1073.0297    
     60400  -114898.91      742.27011     -114156.64      190.91072      191.38694      1073.442     
     60500  -114834.78      741.96147     -114092.82      190.89442      191.36547      1073.8542    
     60600  -114772.79      743.96144     -114028.83      190.88156      191.34767      1074.2664    
     60700  -114708.8       742.85661     -113965.94      190.86919      191.33089      1074.6786    
     60800  -114644.02      741.56524     -113902.45      190.85271      191.31049      1075.0909    
     60900  -114579.01      740.63681     -113838.37      190.83814      191.29253      1075.5031    
     61000  -114517.2       741.05576     -113776.14      190.82438      191.27572      1075.9153    
     61100  -114454         741.0279      -113712.97      190.80768      191.25664      1076.3276    
     61200  -114386.39      736.91731     -113649.48      190.79229      191.23943      1076.7398    
     61300  -114331.51      744.89573     -113586.62      190.77734      191.22319      1077.152     
     61400  -114264.61      742.58306     -113522.02      190.75996      191.20554      1077.5642    
     61500  -114199.68      741.94432     -113457.73      190.74352      191.18899      1077.9765    
     61600  -114133.55      740.03854     -113393.51      190.72699      191.17333      1078.3887    
     61700  -114072.07      743.67707     -113328.39      190.70883      191.15633      1078.8009    
     61800  -114004.69      741.86248     -113262.82      190.6916       191.14065      1079.2132    
     61900  -113937.35      739.07434     -113198.28      190.6743       191.12544      1079.6254    
     62000  -113869.51      736.2372      -113133.27      190.65509      191.10933      1080.0376    
     62100  -113814.39      747.18087     -113067.21      190.63676      191.09426      1080.4498    
     62200  -113747.71      745.18733     -113002.52      190.61873      191.07993      1080.8621    
     62300  -113679.22      741.55857     -112937.67      190.59889      191.06459      1081.2743    
     62400  -113615.36      742.5512      -112872.81      190.57912      191.04954      1081.6865    
     62500  -113546.71      738.76067     -112807.95      190.56095      191.03648      1082.0988    
     62600  -113487.99      745.6056      -112742.38      190.54002      191.02116      1082.511     
     62700  -113413.28      737.34153     -112675.94      190.52066      191.0075       1082.9232    
     62800  -113356.91      746.17507     -112610.73      190.50172      190.9945       1083.3354    
     62900  -113288.8       745.76452     -112543.03      190.48011      190.97901      1083.7477    
     63000  -113220.95      745.27607     -112475.67      190.46084      190.96584      1084.1599    
     63100  -113150.29      742.42672     -112407.87      190.44149      190.95276      1084.5721    
     63200  -113075.49      735.1104      -112340.38      190.4197       190.93738      1084.9843    
     63300  -113016.85      744.2213      -112272.63      190.40035      190.92477      1085.3966    
     63400  -112947.07      741.32035     -112205.75      190.38132      190.91166      1085.8088    
     63500  -112877         738.64963     -112138.35      190.35968      190.89581      1086.221     
     63600  -112816.44      745.19032     -112071.25      190.34032      190.88292      1086.6333    
     63700  -112744.04      739.44822     -112004.59      190.32131      190.86988      1087.0455    
     63800  -112678.66      743.26563     -111935.39      190.29962      190.8531       1087.4577    
     63900  -112612.39      746.82789     -111865.56      190.28158      190.84051      1087.8699    
     64000  -112537.75      740.79698     -111796.95      190.26198      190.82602      1088.2822    
     64100  -112470.34      743.71785     -111726.62      190.24098      190.8094       1088.6944    
     64200  -112398.98      741.63242     -111657.34      190.22327      190.79572      1089.1066    
     64300  -112328.39      740.29315     -111588.09      190.20386      190.77962      1089.5189    
     64400  -112256.29      738.42423     -111517.86      190.1841       190.76281      1089.9311    
     64500  -112192.52      744.16552     -111448.36      190.16743      190.74838      1090.3433    
     64600  -112121.53      743.20493     -111378.33      190.14834      190.7308       1090.7555    
     64700  -112047.55      740.22565     -111307.33      190.1295       190.71312      1091.1678    
     64800  -111981.74      745.41159     -111236.33      190.11355      190.69763      1091.58      
     64900  -111903.07      737.68224     -111165.39      190.09554      190.67927      1091.9922    
     65000  -111836.87      743.39941     -111093.47      190.07782      190.66112      1092.4045    
     65100  -111762.34      741.30318     -111021.04      190.06244      190.64439      1092.8167    
     65200  -111692.28      743.68832     -110948.59      190.04512      190.6251       1093.2289    
     65300  -111616.06      739.80003     -110876.26      190.02852      190.60613      1093.6411    
     65400  -111553.07      748.7872      -110804.28      190.01355      190.58844      1094.0534    
     65500  -111473.62      741.6418      -110731.98      189.99725      190.56857      1094.4656    
     65600  -111403.82      744.68628     -110659.13      189.98141      190.54865      1094.8778    
     65700  -111328.43      742.06942     -110586.36      189.96679      190.52968      1095.29      
     65800  -111261.06      747.53797     -110513.52      189.95065      190.50903      1095.7023    
     65900  -111178.45      738.84593     -110439.6       189.93619      190.48959      1096.1145    
     66000  -111106.79      741.43591     -110365.35      189.92117      190.46932      1096.5267    
     66100  -111036.29      746.19168     -110290.1       189.90589      190.44849      1096.939     
     66200  -110958.04      744.62945     -110213.41      189.89208      190.42895      1097.3512    
     66300  -110883.96      746.68636     -110137.27      189.87661      190.40794      1097.7634    
     66400  -110803.3       742.26012     -110061.04      189.8618       190.38707      1098.1756    
     66500  -110731.03      745.58927     -109985.44      189.84839      190.36738      1098.5879    
     66600  -110652.7       742.02156     -109910.68      189.83287      190.34594      1099.0001    
     66700  -110578.11      742.57667     -109835.53      189.81828      190.32546      1099.4123    
     66800  -110501.91      742.78377     -109759.12      189.80464      190.30557      1099.8246    
     66900  -110429.82      748.03162     -109681.79      189.78941      190.2842       1100.2368    
     67000  -110344.75      740.63976     -109604.11      189.7749       190.26391      1100.649     
     67100  -110266.28      741.27621     -109525         189.76085      190.24443      1101.0612    
     67200  -110190.36      744.57086     -109445.79      189.74481      190.22319      1101.4735    
     67300  -110107.3       741.5398      -109365.76      189.73014      190.2034       1101.8857    
     67400  -110030.04      742.51995     -109287.52      189.71526      190.18401      1102.2979    
     67500  -109949.92      742.0003      -109207.92      189.69917      190.16344      1102.7102    
     67600  -109867.67      739.52627     -109128.15      189.68359      190.14399      1103.1224    
     67700  -109796.12      746.90342     -109049.21      189.66755      190.1248       1103.5346    
     67800  -109718.91      748.77964     -108970.13      189.6511       190.10529      1103.9468    
     67900  -109642.51      751.86013     -108890.65      189.63466      190.08629      1104.3591    
     68000  -109554.23      744.83873     -108809.39      189.61781      190.06713      1104.7713    
     68100  -109477.07      748.82649     -108728.25      189.60108      190.04884      1105.1835    
     68200  -109385.77      739.40101     -108646.37      189.58385      190.03067      1105.5958    
     68300  -109307.34      744.0319      -108563.31      189.56565      190.01185      1106.008     
     68400  -109231.71      750.51255     -108481.2       189.54851      189.99432      1106.4202    
     68500  -109147.66      749.12856     -108398.53      189.53055      189.97675      1106.8324    
     68600  -109057.59      742.56946     -108315.02      189.51169      189.95864      1107.2447    
     68700  -108980.63      746.08504     -108234.55      189.49348      189.94163      1107.6569    
     68800  -108898.08      746.51113     -108151.57      189.4747       189.92445      1108.0691    
     68900  -108817         749.566       -108067.43      189.45606      189.90792      1108.4813    
     69000  -108726.57      743.01222     -107983.56      189.43673      189.89092      1108.8936    
     69100  -108643.27      746.24484     -107897.03      189.41738      189.87451      1109.3058    
     69200  -108557.89      746.69233     -107811.2       189.3979       189.85847      1109.718     
     69300  -108474.89      748.65139     -107726.24      189.37829      189.84253      1110.1303    
     69400  -108388.38      749.42201     -107638.95      189.35834      189.82656      1110.5425    
     69500  -108310.75      757.57218     -107553.18      189.33812      189.81053      1110.9547    
     69600  -108219.28      754.21483     -107465.07      189.31778      189.79473      1111.3669    
     69700  -108126.5       751.32358     -107375.18      189.29753      189.77955      1111.7792    
     69800  -108039.22      752.52413     -107286.7       189.27718      189.76411      1112.1914    
     69900  -107951.93      751.99379     -107199.94      189.25603      189.74778      1112.6036    
     70000  -107864.74      753.53153     -107111.21      189.23589      189.73295      1113.0159    
     70100  -107779.45      756.29523     -107023.15      189.21557      189.71807      1113.4281    
     70200  -107690.14      755.55806     -106934.58      189.19413      189.70187      1113.8403    
     70300  -107597.19      750.1806      -106847.01      189.1738       189.68665      1114.2525    
     70400  -107509.42      752.11972     -106757.3       189.15295      189.67079      1114.6648    
     70500  -107417.89      753.18313     -106664.71      189.13227      189.65525      1115.077     
     70600  -107333.19      759.19256     -106573.99      189.11171      189.63957      1115.4892    
     70700  -107241.02      757.89136     -106483.13      189.09096      189.62329      1115.9015    
     70800  -107145.1       755.8454      -106389.25      189.07048      189.60712      1116.3137    
     70900  -107054.87      756.89887     -106297.97      189.05022      189.59119      1116.7259    
     71000  -106964.08      757.87536     -106206.21      189.02993      189.57473      1117.1381    
     71100  -106878.16      762.52234     -106115.64      189.00949      189.55775      1117.5504    
     71200  -106776.28      752.11343     -106024.17      188.9898       189.54134      1117.9626    
     71300  -106691.74      758.55574     -105933.18      188.96981      189.52462      1118.3748    
     71400  -106590.26      755.22962     -105835.03      188.94975      189.50734      1118.7871    
     71500  -106503.81      760.81076     -105743         188.93054      189.49032      1119.1993    
     71600  -106405.24      758.04061     -105647.2       188.91093      189.4727       1119.6115    
     71700  -106311.85      759.27513     -105552.58      188.89138      189.45516      1120.0237    
     71800  -106215.16      761.31524     -105453.85      188.8724       189.43744      1120.436     
     71900  -106121.63      763.88473     -105357.75      188.85375      189.41931      1120.8482    
     72000  -106023.85      761.93115     -105261.92      188.8348       189.40102      1121.2604    
     72100  -105928.93      761.45877     -105167.47      188.81601      189.38274      1121.6726    
     72200  -105838.01      766.05152     -105071.96      188.7981       189.36461      1122.0849    
     72300  -105742.28      766.8539      -104975.42      188.77945      189.34509      1122.4971    
     72400  -105652.2       774.34804     -104877.85      188.76129      189.32617      1122.9093    
     72500  -105554.64      773.65018     -104780.98      188.7437       189.30765      1123.3216    
     72600  -105451.32      769.98633     -104681.34      188.72516      189.28777      1123.7338    
[...]
     81600  -138447.43      917.95343     -137529.47      188.68931      189.29911      1160.8343    
     81700  -138753.87      888.58471     -137865.29      188.70918      189.32281      1161.2465    
     81800  -139031.31      859.89819     -138171.42      188.72938      189.34676      1161.6588    
     81900  -139279.76      832.1133      -138447.65      188.74997      189.37103      1162.071     
     82000  -139499.02      805.51467     -138693.51      188.77099      189.39567      1162.4832    
     82100  -139688.35      780.29736     -138908.06      188.79264      189.42086      1162.8955    
     82200  -139847.41      757.5748      -139089.83      188.81493      189.44665      1163.3077    
     82300  -139976.91      739.66617     -139237.24      188.83741      189.47252      1163.7199    
     82400  -140077.9       728.05866     -139349.84      188.86005      189.49845      1164.1321    
     82500  -140151.95      723.78854     -139428.16      188.88255      189.52393      1164.5444    
     82600  -140199.81      724.34145     -139475.47      188.905        189.54909      1164.9566    
     82700  -140220.98      724.91321     -139496.07      188.92771      189.57434      1165.3688    
     82800  -140214.62      723.18017     -139491.44      188.95015      189.59915      1165.7811    
     82900  -140177.58      718.81947     -139458.76      188.97058      189.62177      1166.1933    
     83000  -140105.32      712.57146     -139392.75      188.98894      189.64212      1166.6055    
     83100  -139995.04      703.43777     -139291.61      189.00702      189.66201      1167.0177    
     83200  -139846.24      686.73595     -139159.5       189.02394      189.68044      1167.43      
     83300  -139660.17      658.59317     -139001.58      189.04016      189.6981       1167.8422    
     83400  -139441.73      619.00913     -138822.72      189.05585      189.71531      1168.2544    
     83500  -139194.52      563.57999     -138630.94      189.06973      189.73089      1168.6667    
     83600  -138955.04      520.03289     -138435.01      189.08355      189.74644      1169.0789    
     83700  -138797.05      564.37313     -138232.68      189.09071      189.75616      1169.4911    
     83800  -138742.32      721.53221     -138020.79      189.08514      189.75338      1169.9033    
     83900  -138814.01      915.61743     -137898.39      189.07458      189.74326      1170.3156    
     84000  -138911.11      819.80955     -138091.3       189.0588       189.72756      1170.7278    
     84100  -138998.47      706.26088     -138292.21      189.06867      189.73618      1171.14      
     84200  -139064.38      688.02302     -138376.35      189.08337      189.75166      1171.5522    
     84300  -139073.49      708.61955     -138364.87      189.08781      189.75321      1171.9645    
     84400  -139061.9       759.95476     -138301.94      189.09028      189.75027      1172.3767    
     84500  -139062.73      777.10101     -138285.63      189.10343      189.76611      1172.7889    
     84600  -139095.01      751.86679     -138343.14      189.12498      189.78087      1173.2012    
     84700  -139163.41      740.63458     -138422.77      189.14303      189.79261      1173.6134    
     84800  -139186.9       703.53057     -138483.37      189.15802      189.80873      1174.0256    
     84900  -139223.59      733.42637     -138490.16      189.1732       189.82564      1174.4378    
     85000  -139233.36      748.45919     -138484.9       189.18799      189.84885      1174.8501    
     85100  -139241.89      742.40129     -138499.49      189.20072      189.86491      1175.2623    
     85200  -139274.16      744.4338      -138529.72      189.21581      189.87862      1175.6745    
     85300  -139300.33      729.5012      -138570.83      189.22331      189.88482      1176.0868    
     85400  -139294.05      706.53165     -138587.52      189.23246      189.89473      1176.499     
     85500  -139275.39      725.08919     -138550.3       189.23903      189.90508      1176.9112    
     85600  -139252.04      759.4046      -138492.63      189.24286      189.9192       1177.3234    
     85700  -139235.21      762.23716     -138472.97      189.24897      189.93812      1177.7357    
     85800  -139257.83      753.91498     -138503.92      189.2582       189.95401      1178.1479    
     85900  -139289.62      726.17936     -138563.44      189.26825      189.9691       1178.5601    
     86000  -139314.13      713.48827     -138600.65      189.28053      189.98126      1178.9724    
     86100  -139321.54      724.76776     -138596.77      189.29231      189.99089      1179.3846    
     86200  -139319.33      754.23878     -138565.1       189.30761      190.00794      1179.7968    
     86300  -139301.68      753.54101     -138548.14      189.32209      190.02275      1180.209     
     86400  -139295.18      741.92532     -138553.26      189.33606      190.03505      1180.6213    
     86500  -139295.85      729.28036     -138566.57      189.35651      190.05718      1181.0335    
     86600  -139316.31      741.94367     -138574.37      189.37063      190.06828      1181.4457    
     86700  -139325.61      741.91432     -138583.69      189.39703      190.08691      1181.8579    
     86800  -139345.23      741.81985     -138603.41      189.42824      190.10734      1182.2702    
     86900  -139361.43      733.67221     -138627.76      189.45233      190.12618      1182.6824    
     87000  -139383.07      735.36277     -138647.71      189.48065      190.14961      1183.0946    
     87100  -139403.81      740.76808     -138663.04      189.50466      190.16762      1183.5069    
     87200  -139419.5       740.67202     -138678.83      189.52655      190.18725      1183.9191    
     87300  -139438         740.78375     -138697.21      189.54644      190.20935      1184.3313    
     87400  -139456.19      736.69443     -138719.49      189.56169      190.22311      1184.7435    
     87500  -139471.35      735.10259     -138736.24      189.58242      190.24283      1185.1558    
     87600  -139477.98      732.87014     -138745.11      189.60478      190.26316      1185.568     
     87700  -139479.73      732.52342     -138747.21      189.62355      190.28091      1185.9802    
     87800  -139481.04      737.95653     -138743.09      189.64776      190.30325      1186.3925    
     87900  -139487.44      745.14881     -138742.29      189.66602      190.32167      1186.8047    
     88000  -139477.92      727.49129     -138750.43      189.68141      190.33953      1187.2169    
     88100  -139467.89      725.43012     -138742.46      189.69308      190.3545       1187.6291    
     88200  -139446.3       729.88629     -138716.41      189.70446      190.35936      1188.0414    
     88300  -139433.68      749.48008     -138684.2       189.71698      190.36682      1188.4536    
     88400  -139422.71      754.00297     -138668.71      189.72673      190.37394      1188.8658    
     88500  -139410         737.27109     -138672.73      189.73324      190.37618      1189.2781    
     88600  -139414.55      735.00058     -138679.55      189.74381      190.38204      1189.6903    
     88700  -139431.98      746.52937     -138685.45      189.75121      190.38636      1190.1025    
     88800  -139436.97      739.23851     -138697.73      189.76274      190.39358      1190.5147    
     88900  -139455.54      742.36269     -138713.17      189.77194      190.40232      1190.927     
     89000  -139478.6       744.41773     -138734.18      189.7766       190.40546      1191.3392    
     89100  -139499.59      744.97677     -138754.61      189.78639      190.41024      1191.7514    
     89200  -139517.24      734.45453     -138782.79      189.79113      190.41063      1192.1637    
     89300  -139523.36      724.26481     -138799.1       189.80089      190.41432      1192.5759    
     89400  -139535.71      740.09498     -138795.62      189.80983      190.41792      1192.9881    
     89500  -139549.97      751.14686     -138798.82      189.81503      190.42081      1193.4003    
     89600  -139551.78      733.91503     -138817.86      189.8177       190.42271      1193.8126    
     89700  -139558.66      726.44543     -138832.22      189.81918      190.4246       1194.2248    
     89800  -139565.79      735.07196     -138830.72      189.82004      190.42554      1194.637     
     89900  -139568.92      742.77804     -138826.15      189.82126      190.42881      1195.0492    
     90000  -139567.84      738.45126     -138829.38      189.81942      190.43308      1195.4615    
     90100  -139572.72      735.55464     -138837.17      189.8149       190.43866      1195.8737    
     90200  -139579.58      737.28845     -138842.3       189.80961      190.44366      1196.2859    
     90300  -139565.53      728.10199     -138837.42      189.79926      190.44459      1196.6982    
     90400  -139553.52      737.26773     -138816.25      189.78827      190.4473       1197.1104    
     90500  -139544.5       749.88082     -138794.62      189.78099      190.45119      1197.5226    
     90600  -139552.51      754.67717     -138797.83      189.77127      190.45406      1197.9348    
     90700  -139557.01      730.63712     -138826.37      189.76538      190.46036      1198.3471    
     90800  -139574.21      725.79733     -138848.41      189.7578       190.46173      1198.7593    
     90900  -139574.66      730.53791     -138844.12      189.74723      190.46025      1199.1715    
     91000  -139570.81      746.50695     -138824.3       189.74468      190.46386      1199.5838    
     91100  -139580.69      760.07482     -138820.61      189.74036      190.46355      1199.996     
     91200  -139595         743.77646     -138851.22      189.73753      190.46348      1200.4082    
     91300  -139615.28      724.09235     -138891.18      189.73863      190.46273      1200.8204    
     91400  -139632.67      727.43909     -138905.23      189.73522      190.45942      1201.2327    
     91500  -139624.64      733.86432     -138890.78      189.73721      190.46092      1201.6449    
     91600  -139615.25      744.78239     -138870.47      189.73792      190.45876      1202.0571    
     91700  -139618.78      748.1244      -138870.66      189.7367       190.4521       1202.4694    
     91800  -139623.69      734.5016      -138889.19      189.73982      190.45145      1202.8816    
     91900  -139624.3       719.5649      -138904.73      189.74296      190.4503       1203.2938    
     92000  -139623.2       730.13115     -138893.07      189.74344      190.44777      1203.706     
     92100  -139603.37      742.5785      -138860.79      189.74311      190.44562      1204.1183    
     92200  -139589.18      750.48004     -138838.7       189.74124      190.44094      1204.5305    
     92300  -139573.2       735.72953     -138837.47      189.73931      190.43735      1204.9427    
     92400  -139569.16      733.32092     -138835.84      189.73703      190.43359      1205.355     
     92500  -139548.3       723.31762     -138824.98      189.73438      190.42767      1205.7672    
     92600  -139533.67      739.17695     -138794.49      189.73648      190.42758      1206.1794    
     92700  -139512.64      750.5664      -138762.07      189.7369       190.4245       1206.5916    
     92800  -139500.61      747.69288     -138752.92      189.73712      190.42166      1207.0039    
     92900  -139502.82      742.86995     -138759.95      189.73633      190.41952      1207.4161    
     93000  -139492.15      728.43675     -138763.71      189.73401      190.41579      1207.8283    
     93100  -139496.03      742.15366     -138753.87      189.73196      190.41531      1208.2405    
     93200  -139482.98      744.18498     -138738.79      189.7279       190.41754      1208.6528    
     93300  -139491.01      752.59949     -138738.41      189.72307      190.4243       1209.065     
     93400  -139506.95      743.9561      -138762.99      189.71798      190.42704      1209.4772    
     93500  -139521.6       726.66712     -138794.93      189.71093      190.429        1209.8895    
     93600  -139535.88      725.82758     -138810.05      189.70572      190.43519      1210.3017    
     93700  -139531.9       730.93383     -138800.96      189.69672      190.43953      1210.7139    
     93800  -139521.22      741.77772     -138779.44      189.68813      190.44395      1211.1261    
     93900  -139510.33      747.34523     -138762.98      189.68234      190.44682      1211.5384    
     94000  -139515.58      747.11621     -138768.46      189.67747      190.44818      1211.9506    
     94100  -139516.44      728.31777     -138788.12      189.67278      190.44939      1212.3628    
     94200  -139526.21      728.66525     -138797.55      189.66941      190.45393      1212.7751    
     94300  -139522.21      731.99967     -138790.21      189.66688      190.45777      1213.1873    
     94400  -139515.57      743.40162     -138772.17      189.66455      190.45707      1213.5995    
     94500  -139501.6       741.5991      -138760         189.6624       190.45381      1214.0117    
     94600  -139501.22      740.58485     -138760.63      189.66409      190.45547      1214.424     
     94700  -139506.9       735.29617     -138771.6       189.66343      190.45573      1214.8362    
     94800  -139506.85      728.94374     -138777.9       189.66022      190.45401      1215.2484    
     94900  -139509.73      740.43483     -138769.3       189.6589       190.45439      1215.6607    
     95000  -139501.26      743.60261     -138757.66      189.65431      190.4511       1216.0729    
     95100  -139498.92      743.20134     -138755.72      189.64866      190.44981      1216.4851    
     95200  -139515.04      744.65827     -138770.38      189.64822      190.44912      1216.8973    
     95300  -139528.85      732.29636     -138796.55      189.64574      190.44212      1217.3096    
     95400  -139559.18      737.76215     -138821.42      189.64592      190.43987      1217.7218    
     95500  -139570.97      731.90063     -138839.07      189.64565      190.43984      1218.134     
     95600  -139581.9       736.00519     -138845.9       189.64501      190.43882      1218.5463    
     95700  -139583.97      739.65129     -138844.32      189.64763      190.43848      1218.9585    
     95800  -139594.05      750.07469     -138843.98      189.64869      190.43451      1219.3707    
     95900  -139610.54      746.1849      -138864.36      189.65168      190.43064      1219.7829    
     96000  -139632.04      734.34566     -138897.69      189.65482      190.4261       1220.1952    
     96100  -139641.55      725.73034     -138915.82      189.65831      190.42165      1220.6074    
     96200  -139634.75      730.53386     -138904.22      189.65967      190.41593      1221.0196    
     96300  -139613.51      739.76716     -138873.75      189.6588       190.40974      1221.4318    
     96400  -139593.03      750.57673     -138842.45      189.6572       190.4047       1221.8441    
     96500  -139583.28      749.34131     -138833.94      189.6531       190.39917      1222.2563    
     96600  -139579.46      732.05641     -138847.41      189.64631      190.39225      1222.6685    
     96700  -139569.59      719.25861     -138850.33      189.63896      190.38389      1223.0808    
     96800  -139553.89      733.73141     -138820.16      189.63124      190.37817      1223.493     
     96900  -139529.13      751.04975     -138778.08      189.62281      190.37391      1223.9052    
     97000  -139514.62      758.0419      -138756.58      189.61095      190.36811      1224.3174    
     97100  -139526.77      751.09199     -138775.67      189.59725      190.3653       1224.7297    
     97200  -139537.07      723.92683     -138813.15      189.58366      190.36514      1225.1419    
     97300  -139552.74      722.35553     -138830.39      189.56728      190.36314      1225.5541    
     97400  -139545.35      731.58185     -138813.77      189.55087      190.36202      1225.9664    
     97500  -139527.49      745.39154     -138782.1       189.53758      190.36325      1226.3786    
     97600  -139528.14      756.6117      -138771.53      189.52281      190.36167      1226.7908    
     97700  -139544.5       748.24878     -138796.25      189.50665      190.36231      1227.203     
     97800  -139559.59      723.58011     -138836.01      189.49025      190.36383      1227.6153    
     97900  -139577.03      720.03392     -138857         189.47236      190.36244      1228.0275    
     98000  -139582.37      732.01209     -138850.36      189.45676      190.36454      1228.4397    
     98100  -139578.04      747.32202     -138830.72      189.44067      190.36537      1228.852     
     98200  -139576.75      750.95243     -138825.8       189.42221      190.36542      1229.2642    
     98300  -139593.94      748.86588     -138845.07      189.40599      190.36737      1229.6764    
     98400  -139598.48      727.84633     -138870.64      189.38665      190.36382      1230.0886    
     98500  -139591.1       718.84913     -138872.25      189.36755      190.36092      1230.5009    
     98600  -139584.61      741.87572     -138842.74      189.35157      190.3611       1230.9131    
     98700  -139565.67      752.50167     -138813.17      189.33151      190.35699      1231.3253    
     98800  -139561.07      751.43652     -138809.63      189.31227      190.35327      1231.7375    
     98900  -139571.86      739.22453     -138832.63      189.29585      190.35122      1232.1498    
     99000  -139575.23      721.54268     -138853.69      189.27532      190.34289      1232.562     
     99100  -139568.41      720.42092     -138847.99      189.25764      190.33582      1232.9742    
     99200  -139550.47      735.41542     -138815.05      189.24474      190.32954      1233.3865    
     99300  -139543.96      759.09281     -138784.87      189.22905      190.31725      1233.7987    
     99400  -139551         761.59306     -138789.41      189.21927      190.30825      1234.2109    
     99500  -139563.51      733.48918     -138830.02      189.21024      190.29603      1234.6231    
     99600  -139590.59      722.36767     -138868.23      189.20027      190.28224      1235.0354    
     99700  -139602.01      724.11581     -138877.89      189.19744      190.27376      1235.4476    
     99800  -139605.98      743.43667     -138862.55      189.19157      190.26043      1235.8598    
     99900  -139600.69      751.46155     -138849.23      189.18613      190.24675      1236.2721    
    100000  -139604.93      748.1511      -138856.78      189.18514      190.23568      1236.6843    
Loop time of 1415.3 on 32 procs for 100000 steps with 19040 atoms

Performance: 6.105 ns/day, 3.931 hours/ns, 70.657 timesteps/s, 1.345 Matom-step/s
95.6% CPU use with 32 MPI tasks x 1 OpenMP threads

MPI task timing breakdown:
Section |  min time  |  avg time  |  max time  |%varavg| %total
---------------------------------------------------------------
Pair    | 944.98     | 1120.4     | 1258.3     | 325.7 | 79.16
Neigh   | 5.2918     | 9.0832     | 12.195     |  86.1 |  0.64
Comm    | 57.19      | 183.96     | 367.92     | 772.8 | 13.00
Output  | 0.40218    | 0.5067     | 0.76932    |  10.8 |  0.04
Modify  | 60.728     | 98.424     | 131.69     | 266.9 |  6.95
Other   |            | 2.916      |            |       |  0.21

Nlocal:            595 ave         969 max          75 min
Histogram: 8 0 0 3 3 2 0 0 5 11
Nghost:        2243.06 ave        3352 max         612 min
Histogram: 8 0 0 4 4 0 0 0 0 16
Neighs:              0 ave           0 max           0 min
Histogram: 32 0 0 0 0 0 0 0 0 0

Total # of neighbors = 0
Ave neighs/atom = 0
Neighbor list builds = 765
Dangerous builds = 0
Total wall time: 0:23:35
