LAMMPS (2 Aug 2023 - Update 3)
OMP_NUM_THREADS environment is not set. Defaulting to 1 thread. (src/comm.cpp:98)
  using 1 OpenMP thread(s) per MPI task
Reading data file ...
  orthogonal box = (-100 -100 -2.331251) to (100 100 38.891558)
  3 by 4 by 1 MPI processor grid
  reading atoms ...
  920 atoms
  read_data CPU = 0.016 seconds
Replication is creating a 1x1x5 = 5 times larger system...
  orthogonal box = (-100 -100 -2.331251) to (100 100 203.78279)
  2 by 2 by 3 MPI processor grid
  4600 atoms
  replicate CPU = 0.001 seconds
1200 atoms in group SR
Deleted 1200 atoms, new total = 3400
System init for write_data ...
WARNING: Communication cutoff is 0.0. No ghost atoms will be generated. Atoms may get lost. (src/comm_brick.cpp:210)
Reading airebo potential file CH.airebo with DATE: 2011-10-25
Reading airebo potential file CH.airebo with DATE: 2011-10-25
Neighbor list info ...
  update: every = 1 steps, delay = 0 steps, check = yes
  max neighbors/atom: 2000, page size: 100000
  master list distance cutoff = 13.2
  ghost atom cutoff = 13.2
  binsize = 6.6, bins = 31 31 32
  5 neighbor lists, perpetual/occasional/extra = 5 0 0
  (1) pair airebo, perpetual, skip from (4)
      attributes: full, newton on, ghost
      pair build: skip/ghost
      stencil: none
      bin: none
  (2) pair airebo, perpetual, skip from (4)
      attributes: full, newton on, ghost
      pair build: skip/ghost
      stencil: none
      bin: none
  (3) pair lj/cut, perpetual, skip from (5)
      attributes: half, newton on, cut 13
      pair build: skip
      stencil: none
      bin: none
  (4) neighbor class addition, perpetual
      attributes: full, newton on, ghost
      pair build: full/bin/ghost
      stencil: full/ghost/bin/3d
      bin: standard
  (5) neighbor class addition, perpetual
      attributes: half, newton on, cut 13
      pair build: half/bin/atomonly/newton
      stencil: half/bin/3d
      bin: standard
Setting up sd style minimization ...
  Unit style    : metal
  Current step  : 0
Per MPI rank memory allocation (min/avg/max) = 9.28 | 9.282 | 9.282 Mbytes
   Step          Temp          E_pair         E_mol          TotEng         Press     
         0   0             -25158.554      0             -25158.554     -0.21847277   
         1   0             -25158.675      0             -25158.675     -0.39920433   
Loop time of 0.200059 on 12 procs for 1 steps with 3400 atoms

74.7% CPU use with 12 MPI tasks x 1 OpenMP threads

Minimization stats:
  Stopping criterion = energy tolerance
  Energy initial, next-to-last, final = 
     -25158.5539879869  -25158.5539879869  -25158.6746835064
  Force two-norm initial, final = 5.7262863 0.54872481
  Force max component initial, final = 0.098019031 0.0093756234
  Final line search alpha, max atom move = 1 0.0093756234
  Iterations, force evaluations = 1 2

MPI task timing breakdown:
Section |  min time  |  avg time  |  max time  |%varavg| %total
---------------------------------------------------------------
Pair    | 0.012226   | 0.019313   | 0.038625   |   6.8 |  9.65
Neigh   | 0          | 0          | 0          |   0.0 |  0.00
Comm    | 0.046394   | 0.06324    | 0.083308   |   5.0 | 31.61
Output  | 0          | 0          | 0          |   0.0 |  0.00
Modify  | 0          | 0          | 0          |   0.0 |  0.00
Other   |            | 0.1175     |            |       | 58.74

Nlocal:        283.333 ave         314 max         252 min
Histogram: 3 0 0 0 2 4 0 0 0 3
Nghost:        1283.33 ave        1323 max        1247 min
Histogram: 2 0 1 2 2 0 2 1 1 1
Neighs:              0 ave           0 max           0 min
Histogram: 12 0 0 0 0 0 0 0 0 0

Total # of neighbors = 0
Ave neighs/atom = 0
Neighbor list builds = 0
Dangerous builds = 0
Setting up Verlet run ...
  Unit style    : metal
  Current step  : 1
  Time step     : 0.001
Per MPI rank memory allocation (min/avg/max) = 9.905 | 9.907 | 9.907 Mbytes
   Step          Temp          E_pair         E_mol          TotEng         Press          Volume    
         1   300           -25158.675      0             -25026.868      16.676891      8244561.8    
Loop time of 3.43625e-05 on 12 procs for 0 steps with 3400 atoms

90.9% CPU use with 12 MPI tasks x 1 OpenMP threads

MPI task timing breakdown:
Section |  min time  |  avg time  |  max time  |%varavg| %total
---------------------------------------------------------------
Pair    | 0          | 0          | 0          |   0.0 |  0.00
Neigh   | 0          | 0          | 0          |   0.0 |  0.00
Comm    | 0          | 0          | 0          |   0.0 |  0.00
Output  | 0          | 0          | 0          |   0.0 |  0.00
Modify  | 0          | 0          | 0          |   0.0 |  0.00
Other   |            | 3.436e-05  |            |       |100.00

Nlocal:        283.333 ave         285 max         280 min
Histogram: 4 0 0 0 0 0 0 0 0 8
Nghost:        1283.33 ave        1295 max        1275 min
Histogram: 4 0 4 0 0 0 0 0 0 4
Neighs:              0 ave           0 max           0 min
Histogram: 12 0 0 0 0 0 0 0 0 0

Total # of neighbors = 0
Ave neighs/atom = 0
Neighbor list builds = 0
Dangerous builds = 0
WARNING: New thermo_style command, previous thermo_modify settings will be lost (src/output.cpp:903)
WARNING: Dump 2 includes no atom IDs and is not sorted by ID. This may complicate post-processing tasks or visualization (src/dump.cpp:221)
Setting up Verlet run ...
  Unit style    : metal
  Current step  : 0
  Time step     : 0.001
Per MPI rank memory allocation (min/avg/max) = 11.41 | 11.41 | 11.41 Mbytes
   Step         PotEng         KinEng         TotEng           Lx             Ly             Lz      
         0  -25158.675      131.80657     -25026.868      200            200            206.11405    
       100  -25081.917      66.453843     -25015.464      200.00318      200.00387      206.2171     
       200  -25083.303      84.371843     -24998.931      199.99871      200.00022      206.32016    
       300  -25070.875      91.63182      -24979.243      200.00173      200.00407      206.42322    
       400  -25054.958      97.226878     -24957.731      199.99674      200.00007      206.52627    
       500  -25046.603      111.02872     -24935.575      200.00086      200.00471      206.62933    
       600  -25036.342      121.95636     -24914.386      199.99415      199.9984       206.73239    
       700  -25029.806      133.18648     -24896.62       199.99934      200.00382      206.83544    
       800  -25022.269      136.66817     -24885.601      199.99258      199.99749      206.9385     
       900  -25022.149      137.26283     -24884.886      199.99628      200.00123      207.04156    
      1000  -25023.872      130.80636     -24893.065      199.9901       199.99566      207.14462    
      1100  -25029.646      129.04536     -24900.601      199.99158      199.99815      207.24767    
      1200  -25029.904      128.39013     -24901.514      199.98608      199.9942       207.35073    
      1300  -25026.337      130.91916     -24895.417      199.98564      199.99599      207.45379    
      1400  -25023.502      135.90816     -24887.594      199.98018      199.99276      207.55684    
      1500  -25019.681      134.94303     -24884.738      199.97851      199.99341      207.6599     
      1600  -25021.56       133.5308      -24888.03       199.97269      199.98997      207.76296    
      1700  -25023.665      130.96134     -24892.704      199.9708       199.99063      207.86601    
      1800  -25023.491      129.04265     -24894.448      199.9644       199.98642      207.96907    
      1900  -25020.875      129.77935     -24891.096      199.9633       199.9873       208.07213    
      2000  -25018.226      133.02855     -24885.197      199.95544      199.98143      208.17519    
      2100  -25015.035      134.12046     -24880.915      199.95496      199.98287      208.27824    
      2200  -25015.738      133.69253     -24882.045      199.94675      199.97646      208.3813     
      2300  -25015.558      129.78566     -24885.772      199.94544      199.97689      208.48436    
      2400  -25019.46       131.11335     -24888.347      199.93735      199.97038      208.58741    
      2500  -25017.497      130.91278     -24886.584      199.93568      199.96988      208.69047    
      2600  -25013.892      132.69422     -24881.198      199.92758      199.96295      208.79353    
      2700  -25007.971      132.06802     -24875.903      199.92561      199.96162      208.89658    
      2800  -25007.378      133.23914     -24874.139      199.91754      199.95385      208.99964    
      2900  -25009.931      133.23285     -24876.699      199.91555      199.95191      209.1027     
      3000  -25008.465      128.70484     -24879.76       199.90715      199.94333      209.20576    
      3100  -25012.873      133.34405     -24879.529      199.90545      199.94138      209.30881    
      3200  -25008.662      133.15323     -24875.509      199.89636      199.9322       209.41187    
      3300  -25004.027      134.08416     -24869.943      199.89477      199.93045      209.51493    
      3400  -25001.279      134.78338     -24866.496      199.88512      199.92073      209.61798    
      3500  -25001.571      134.6813      -24866.89       199.88248      199.91861      209.72104    
      3600  -25000.458      130.51655     -24869.941      199.8722       199.90949      209.8241     
      3700  -25000.37       129.44613     -24870.924      199.86836      199.90661      209.92715    
      3800  -24996.742      129.09304     -24867.649      199.85761      199.89778      210.03021    
      3900  -24992.148      130.25024     -24861.898      199.85271      199.895        210.13327    
      4000  -24990.467      133.25908     -24857.208      199.84189      199.8869       210.23633    
      4100  -24990.421      133.69373     -24856.728      199.83546      199.88286      210.33938    
      4200  -24990.806      131.62053     -24859.186      199.82435      199.87458      210.44244    
      4300  -24991.271      131.01162     -24860.26       199.81704      199.87003      210.5455     
      4400  -24988.434      130.88409     -24857.55       199.8052       199.86094      210.64855    
      4500  -24984.816      132.96601     -24851.85       199.7987       199.8565       210.75161    
      4600  -24981.749      134.2292      -24847.52       199.78647      199.84647      210.85467    
      4700  -24980.557      134.4061      -24846.151      199.77888      199.84062      210.95773    
      4800  -24980.198      132.90627     -24847.292      199.76736      199.83057      211.06078    
      4900  -24978.327      130.30536     -24848.022      199.7589       199.82324      211.16384    
      5000  -24975.387      129.39896     -24845.988      199.74818      199.81312      211.2669     
      5100  -24972.459      131.14648     -24841.312      199.73853      199.80397      211.36995    
      5200  -24969.806      133.19327     -24836.612      199.72825      199.79334      211.47301    
      5300  -24965.942      131.64891     -24834.293      199.71807      199.78279      211.57607    
      5400  -24966.821      132.66666     -24834.154      199.70741      199.7722       211.67912    
      5500  -24964.644      130.46958     -24834.174      199.69634      199.76134      211.78218    
      5600  -24962.094      129.50642     -24832.587      199.68477      199.75035      211.88524    
      5700  -24961.729      133.19649     -24828.533      199.67328      199.73979      211.9883     
      5800  -24957.605      133.54335     -24824.061      199.6602       199.7286       212.09135    
      5900  -24953.875      133.01162     -24820.863      199.64725      199.71796      212.19441    
      6000  -24950.418      130.19655     -24820.221      199.63384      199.70711      212.29747    
      6100  -24951.565      131.33914     -24820.226      199.61915      199.69545      212.40052    
      6200  -24948.469      128.96879     -24819.5        199.60567      199.68524      212.50358    
      6300  -24945.035      129.15791     -24815.877      199.58911      199.67225      212.60664    
      6400  -24942.276      132.98296     -24809.293      199.5756       199.66172      212.70969    
      6500  -24937.139      131.6249      -24805.514      199.55856      199.64778      212.81275    
      6600  -24937.592      133.2698      -24804.322      199.54441      199.63672      212.91581    
      6700  -24934.299      130.02386     -24804.275      199.52689      199.62195      213.01887    
      6800  -24933.798      130.35595     -24803.442      199.51232      199.60974      213.12192    
      6900  -24932.382      129.92005     -24802.462      199.4948       199.59402      213.22498    
      7000  -24930.085      130.50449     -24799.581      199.47969      199.58041      213.32804    
      7100  -24924.475      131.94469     -24792.531      199.46123      199.56399      213.43109    
      7200  -24919.045      131.54763     -24787.498      199.44598      199.55011      213.53415    
      7300  -24917.948      133.17994     -24784.768      199.42595      199.53178      213.63721    
      7400  -24916.978      131.92356     -24785.055      199.40992      199.5174       213.74026    
      7500  -24914.618      130.03912     -24784.579      199.38903      199.49762      213.84332    
      7600  -24909.625      129.39823     -24780.227      199.37314      199.48276      213.94638    
      7700  -24905.153      133.75373     -24771.399      199.35133      199.46208      214.04944    
      7800  -24902.772      133.94077     -24768.832      199.33429      199.44572      214.15249    
      7900  -24898.912      130.16537     -24768.746      199.31238      199.4247       214.25555    
      8000  -24898.379      130.2281      -24768.151      199.29382      199.40681      214.35861    
      8100  -24896.977      132.43487     -24764.543      199.27092      199.38501      214.46166    
      8200  -24893.176      133.98316     -24759.193      199.25145      199.36689      214.56472    
      8300  -24886.478      136.04811     -24750.43       199.22729      199.34427      214.66778    
      8400  -24882.529      134.18855     -24748.341      199.20597      199.3251       214.77083    
      8500  -24880.368      132.04179     -24748.326      199.1807       199.30207      214.87389    
      8600  -24879.523      132.39546     -24747.127      199.1578       199.28234      214.97695    
      8700  -24878.193      133.46362     -24744.729      199.13098      199.25923      215.08001    
      8800  -24873.212      131.96934     -24741.243      199.10601      199.23832      215.18306    
      8900  -24867.332      132.14705     -24735.185      199.07855      199.21521      215.28612    
      9000  -24862.681      134.00684     -24728.674      199.05126      199.19317      215.38918    
      9100  -24862.403      135.84024     -24726.562      199.02283      199.16983      215.49223    
      9200  -24857.048      129.86933     -24727.179      198.99307      199.14539      215.59529    
      9300  -24854.808      130.38321     -24724.425      198.9649       199.12192      215.69835    
      9400  -24851.325      131.25203     -24720.073      198.93353      199.09508      215.80141    
      9500  -24845.882      131.69114     -24714.191      198.90458      199.07015      215.90446    
      9600  -24841.958      135.34855     -24706.609      198.87291      199.04172      216.00752    
      9700  -24836.007      133.92778     -24702.079      198.84303      199.01425      216.11058    
      9800  -24837.78       133.361       -24704.419      198.81029      198.98354      216.21363    
      9900  -24832.326      129.87929     -24702.447      198.77885      198.95411      216.31669    
     10000  -24829.281      131.08841     -24698.192      198.74543      198.92215      216.41975    
     10100  -24825.53       133.43449     -24692.096      198.71374      198.8913       216.5228     
     10200  -24818.917      132.6898      -24686.227      198.67843      198.85746      216.62586    
     10300  -24815.215      131.61691     -24683.598      198.64495      198.82532      216.72892    
     10400  -24814.484      129.89986     -24684.585      198.60829      198.79025      216.83198    
     10500  -24811.19       129.7888      -24681.401      198.57271      198.75672      216.93503    
     10600  -24806.505      131.30583     -24675.199      198.534        198.72071      217.03809    
     10700  -24799.005      131.10067     -24667.904      198.49623      198.68665      217.14115    
     10800  -24797.437      134.02574     -24663.411      198.45516      198.64972      217.2442     
     10900  -24790.042      129.57485     -24660.467      198.41469      198.61454      217.34726    
     11000  -24791.931      134.53704     -24657.394      198.37181      198.57723      217.45032    
     11100  -24786.383      131.33704     -24655.046      198.32937      198.54059      217.55337    
     11200  -24784.243      131.70818     -24652.535      198.28443      198.50135      217.65643    
     11300  -24778.551      128.88111     -24649.67       198.24106      198.46347      217.75949    
     11400  -24776.485      133.36664     -24643.118      198.19432      198.42241      217.86255    
     11500  -24766.727      131.30173     -24635.425      198.14986      198.38306      217.9656     
     11600  -24762.181      131.68721     -24630.494      198.10104      198.33928      218.06866    
     11700  -24757.72       129.13958     -24628.58       198.05535      198.2985       218.17172    
     11800  -24758.471      129.91156     -24628.56       198.00434      198.25277      218.27477    
     11900  -24752.766      128.94763     -24623.818      197.9568       198.21023      218.37783    
     12000  -24748.463      131.32406     -24617.139      197.90549      198.16279      218.48089    
     12100  -24740.834      129.52587     -24611.308      197.85655      198.11736      218.58394    
     12200  -24738.357      132.73673     -24605.62       197.80372      198.06766      218.687      
     12300  -24734.422      133.703       -24600.719      197.75341      198.0207       218.79006    
     12400  -24728.682      131.04746     -24597.635      197.69949      197.96934      218.89312    
     12500  -24722.574      126.47424     -24596.099      197.64734      197.92003      218.99617    
     12600  -24722.352      130.59762     -24591.755      197.59178      197.86737      219.09923    
     12700  -24717.257      133.87931     -24583.378      197.53773      197.81686      219.20229    
     12800  -24709.763      133.19434     -24576.569      197.48107      197.76397      219.30534    
     12900  -24706.48       133.152       -24573.328      197.42442      197.71114      219.4084     
     13000  -24704.931      134.53517     -24570.396      197.36601      197.65692      219.51146    
     13100  -24695.676      129.24509     -24566.431      197.30766      197.60308      219.61451    
     13200  -24695.502      134.53375     -24560.968      197.24754      197.5477       219.71757    
     13300  -24683.792      133.43272     -24550.359      197.18754      197.49272      219.82063    
     13400  -24681.988      137.18235     -24544.805      197.12574      197.43652      219.92369    
     13500  -24676.471      132.6551      -24543.816      197.06377      197.3807       220.02674    
     13600  -24670.724      128.99744     -24541.727      196.99991      197.32347      220.1298     
     13700  -24669.313      131.90316     -24537.409      196.93677      197.26733      220.23286    
     13800  -24663.119      131.03901     -24532.08       196.87147      197.20932      220.33591    
     13900  -24654.567      129.70016     -24524.867      196.80603      197.15154      220.43897    
     14000  -24650.864      134.13322     -24516.731      196.74027      197.0932       220.54203    
     14100  -24646.34       134.09876     -24512.241      196.67273      197.03361      220.64509    
     14200  -24642.258      130.21505     -24512.043      196.60712      196.97564      220.74814    
     14300  -24635.963      127.88494     -24508.078      196.53734      196.91375      220.8512     
     14400  -24632.811      131.18511     -24501.626      196.47229      196.8558       220.95426    
     14500  -24627.512      133.66566     -24493.846      196.40193      196.79209      221.05731    
     14600  -24619.409      131.83816     -24487.571      196.33702      196.73338      221.16037    
     14700  -24618.798      133.86289     -24484.935      196.26625      196.66829      221.26343    
     14800  -24616.662      133.22451     -24483.437      196.20142      196.60835      221.36648    
     14900  -24608.986      131.31334     -24477.672      196.13062      196.54186      221.46954    
     15000  -24600.007      131.16752     -24468.84       196.06699      196.48212      221.5726     
     15100  -24595.832      134.18116     -24461.651      195.99579      196.41469      221.67566    
     15200  -24590.174      132.52497     -24457.649      195.93194      196.35427      221.77871    
     15300  -24584.158      130.76159     -24453.396      195.86031      196.28602      221.88177    
     15400  -24582.609      134.32434     -24448.284      195.79689      196.22617      221.98483    
     15500  -24572.533      129.64255     -24442.891      195.72555      196.15812      222.08788    
     15600  -24567.912      130.4546      -24437.457      195.66119      196.09745      222.19094    
     15700  -24562.552      131.02212     -24431.53       195.59007      196.03039      222.294      
     15800  -24558.288      132.73019     -24425.558      195.52564      195.97002      222.39705    
     15900  -24551.83       132.03339     -24419.796      195.45469      195.90444      222.50011    
     16000  -24549.255      134.30507     -24414.95       195.3887       195.84428      222.60317    
     16100  -24543.219      132.04157     -24411.177      195.31849      195.78068      222.70623    
     16200  -24538.804      132.13602     -24406.668      195.25139      195.72052      222.80928    
     16300  -24530.306      131.20426     -24399.102      195.18162      195.65815      222.91234    
     16400  -24522.409      132.62559     -24389.784      195.11513      195.59909      223.0154     
     16500  -24515.64       131.75596     -24383.884      195.04624      195.53764      223.11845    
     16600  -24511.597      131.22107     -24380.376      194.97919      195.47803      223.22151    
     16700  -24509.081      130.37857     -24378.703      194.91222      195.41852      223.32457    
     16800  -24506.32       128.71667     -24377.603      194.84538      195.35908      223.42762    
     16900  -24498.171      127.86111     -24370.31       194.78001      195.30076      223.53068    
     17000  -24489.378      128.49048     -24360.888      194.71432      195.24151      223.63374    
     17100  -24482.051      130.86201     -24351.189      194.65045      195.18409      223.7368     
     17200  -24479.012      135.24252     -24343.77       194.58624      195.12512      223.83985    
     17300  -24471.754      133.35713     -24338.397      194.52422      195.06727      223.94291    
     17400  -24464.731      128.97208     -24335.759      194.46206      195.00852      224.04597    
     17500  -24462.901      130.7249      -24332.176      194.40139      194.951        224.14902    
     17600  -24453.222      129.5573      -24323.665      194.34036      194.89285      224.25208    
     17700  -24448.835      134.92088     -24313.914      194.28194      194.83725      224.35514    
     17800  -24441.708      133.42844     -24308.28       194.22118      194.77898      224.4582     
     17900  -24434.567      130.83835     -24303.728      194.1641       194.72472      224.56125    
     18000  -24427.562      128.20424     -24299.358      194.10408      194.66762      224.66431    
     18100  -24426.505      131.8347      -24294.67       194.0487       194.61482      224.76737    
     18200  -24419.998      132.0886      -24287.909      193.9894       194.55851      224.87042    
     18300  -24408.029      130.72742     -24277.301      193.93513      194.50732      224.97348    
     18400  -24400.881      131.30761     -24269.573      193.87747      194.45338      225.07654    
     18500  -24398.476      132.93508     -24265.541      193.82301      194.40282      225.17959    
     18600  -24393.225      131.03695     -24262.188      193.76584      194.35021      225.28265    
     18700  -24389.073      132.86169     -24256.212      193.71237      194.30209      225.38571    
     18800  -24379.774      130.81391     -24248.96       193.65621      194.25131      225.48877    
     18900  -24375.008      133.53508     -24241.473      193.60307      194.20406      225.59182    
     19000  -24365.688      132.09832     -24233.589      193.54852      194.15552      225.69488    
     19100  -24360.736      135.45292     -24225.283      193.49611      194.10935      225.79794    
     19200  -24349.751      133.70105     -24216.05       193.44315      194.06196      225.90099    
     19300  -24343.565      132.98653     -24210.578      193.39174      194.01602      226.00405    
     19400  -24340.753      131.84133     -24208.912      193.34095      193.97006      226.10711    
     19500  -24334.995      130.83693     -24204.158      193.28991      193.92336      226.21016    
     19600  -24329.77       132.83115     -24196.939      193.2413       193.87923      226.31322    
     19700  -24319.202      131.92526     -24187.276      193.19168      193.8335       226.41628    
     19800  -24309.641      131.6214      -24178.02       193.14431      193.78982      226.51934    
     19900  -24308.441      135.98299     -24172.458      193.09569      193.74407      226.62239    
     20000  -24300.496      129.1366      -24171.359      193.05055      193.70161      226.72545    
     20100  -24298.216      132.47905     -24165.737      193.00276      193.65597      226.82851    
     20200  -24291.139      133.63078     -24157.508      192.95971      193.61475      226.93156    
     20300  -24280.289      132.75978     -24147.529      192.91235      193.56929      227.03462    
     20400  -24274.356      134.96539     -24139.39       192.87097      193.52935      227.13768    
     20500  -24266.746      131.48996     -24135.256      192.82459      193.48463      227.24073    
     20600  -24261.686      128.277       -24133.409      192.78368      193.44513      227.34379    
     20700  -24256.217      130.2987      -24125.919      192.73918      193.4022       227.44685    
     20800  -24248.878      133.13903     -24115.739      192.69797      193.36272      227.54991    
     20900  -24237.839      130.93352     -24106.906      192.65491      193.3217       227.65296    
     21000  -24234.319      133.642       -24100.677      192.61396      193.28326      227.75602    
     21100  -24229.788      134.02424     -24095.764      192.5709       193.24338      227.85908    
     21200  -24223.271      130.71496     -24092.556      192.53007      193.20578      227.96213    
     21300  -24219.359      130.24345     -24089.116      192.48759      193.16724      228.06519    
     21400  -24207.701      128.85922     -24078.841      192.44756      193.13134      228.16825    
     21500  -24200.409      131.11938     -24069.29       192.40527      193.09372      228.2713     
     21600  -24192.916      132.96612     -24059.95       192.36502      193.05816      228.37436    
     21700  -24182.276      130.83885     -24051.437      192.32407      193.02186      228.47742    
     21800  -24177.953      133.77629     -24044.177      192.2834       192.9854       228.58048    
     21900  -24172.382      132.47892     -24039.903      192.24465      192.9506       228.68353    
     22000  -24166.556      130.22245     -24036.333      192.20389      192.91327      228.78659    
     22100  -24155.343      127.59567     -24027.747      192.1667       192.87942      228.88965    
     22200  -24151.58       134.46423     -24017.115      192.12662      192.84226      228.9927     
     22300  -24141.946      132.16024     -24009.785      192.09065      192.80914      229.09576    
     22400  -24136.942      133.3313      -24003.61       192.05132      192.77206      229.19882    
     22500  -24128.289      130.30022     -23997.988      192.01607      192.73892      229.30188    
     22600  -24123.089      130.05972     -23993.029      191.97758      192.70188      229.40493    
     22700  -24117.373      130.63384     -23986.739      191.94334      192.66882      229.50799    
     22800  -24105.778      130.31709     -23975.461      191.90569      192.63216      229.61105    
     22900  -24100.33       134.75167     -23965.579      191.87258      192.59985      229.7141     
     23000  -24089.791      131.73054     -23958.061      191.83506      192.56319      229.81716    
     23100  -24084.382      131.42658     -23952.955      191.80159      192.53073      229.92022    
     23200  -24079.22       129.66901     -23949.551      191.76482      192.49531      230.02327    
     23300  -24071.821      129.02663     -23942.795      191.73104      192.46305      230.12633    
     23400  -24061.79       132.43674     -23929.354      191.69463      192.4282       230.22939    
     23500  -24053.112      132.12373     -23920.988      191.66106      192.39667      230.33245    
     23600  -24047.678      132.93854     -23914.74       191.62528      192.36249      230.4355     
     23700  -24039.961      130.3182      -23909.643      191.59101      192.33028      230.53856    
     23800  -24033.477      130.08236     -23903.395      191.55623      192.29749      230.64162    
     23900  -24026.526      132.59661     -23893.929      191.52208      192.26559      230.74467    
     24000  -24016.879      134.39907     -23882.48       191.48733      192.23347      230.84773    
     24100  -24008.763      133.89295     -23874.87       191.45243      192.20119      230.95079    
     24200  -24002.573      132.28719     -23870.286      191.41863      192.17065      231.05384    
     24300  -23994.981      128.64293     -23866.338      191.38294      192.13797      231.1569     
     24400  -23986.946      128.31333     -23858.633      191.35029      192.10844      231.25996    
     24500  -23980.478      131.35597     -23849.122      191.3142       192.0754       231.36302    
     24600  -23972.221      133.27801     -23838.943      191.28245      192.04659      231.46607    
     24700  -23965.282      135.28491     -23829.997      191.24675      192.01351      231.56913    
     24800  -23956.82       132.3449      -23824.475      191.21468      191.98428      231.67219    
     24900  -23950.228      128.5349      -23821.693      191.17944      191.95134      231.77524    
     25000  -23943.44       130.21188     -23813.228      191.14737      191.92153      231.8783     
     25100  -23933.403      130.71285     -23802.69       191.1133       191.88945      231.98136    
     25200  -23926.639      133.12389     -23793.515      191.08118      191.85917      232.08441    
     25300  -23918.956      133.78736     -23785.169      191.04741      191.82663      232.18747    
     25400  -23906.301      129.17317     -23777.128      191.0157       191.79608      232.29053    
     25500  -23901.35       132.68827     -23768.662      190.98247      191.76401      232.39359    
     25600  -23895.397      133.65264     -23761.744      190.95055      191.73334      232.49664    
     25700  -23884.434      128.2154      -23756.218      190.9173       191.70139      232.5997     
     25800  -23880.704      131.08884     -23749.615      190.88536      191.6709       232.70276    
     25900  -23871.913      132.49228     -23739.421      190.85253      191.63988      232.80581    
     26000  -23861.491      133.79308     -23727.698      190.82023      191.60875      232.90887    
     26100  -23852.013      131.57755     -23720.435      190.78868      191.57854      233.01193    
     26200  -23846.078      131.03344     -23715.044      190.75546      191.54649      233.11498    
     26300  -23841.509      133.1944      -23708.314      190.72439      191.51646      233.21804    
     26400  -23831.638      131.52449     -23700.114      190.69104      191.48461      233.3211     
     26500  -23822.739      131.45038     -23691.288      190.65978      191.45476      233.42416    
     26600  -23813.06       131.2303      -23681.83       190.62655      191.42358      233.52721    
     26700  -23807.849      136.67004     -23671.179      190.59484      191.39415      233.63027    
     26800  -23796.698      137.0873      -23659.61       190.56173      191.36314      233.73333    
     26900  -23787.784      133.35217     -23654.431      190.5294       191.33287      233.83638    
     27000  -23783.067      132.52471     -23650.543      190.49678      191.30221      233.93944    
     27100  -23776.388      132.68805     -23643.7        190.46421      191.27183      234.0425     
     27200  -23765.587      129.53427     -23636.053      190.43171      191.24168      234.14556    
     27300  -23758.97       132.12659     -23626.844      190.39904      191.21087      234.24861    
     27400  -23747.223      132.36562     -23614.858      190.36681      191.18078      234.35167    
     27500  -23740.362      134.64872     -23605.713      190.3346       191.15034      234.45473    
     27600  -23733.495      132.45616     -23601.038      190.30175      191.11932      234.55778    
     27700  -23727.828      132.62052     -23595.208      190.27002      191.08969      234.66084    
     27800  -23715.125      128.58173     -23586.544      190.23695      191.05828      234.7639     
     27900  -23707.849      131.44012     -23576.409      190.20504      191.02841      234.86695    
     28000  -23699.319      133.29033     -23566.029      190.17318      190.99793      234.97001    
     28100  -23689.14       131.56444     -23557.576      190.14061      190.96684      235.07307    
     28200  -23682.217      129.205       -23553.012      190.10921      190.93639      235.17613    
     28300  -23678.493      130.99409     -23547.499      190.07687      190.90491      235.27918    
     28400  -23670.006      131.88395     -23538.122      190.04518      190.8744       235.38224    
     28500  -23659          133.08201     -23525.918      190.01258      190.84306      235.4853     
     28600  -23647.527      131.26824     -23516.259      189.98059      190.81266      235.58835    
     28700  -23642.709      133.92594     -23508.783      189.94798      190.78146      235.69141    
     28800  -23634.341      132.06587     -23502.275      189.916        190.7509       235.79447    
     28900  -23626.714      130.27337     -23496.441      189.88301      190.71953      235.89752    
     29000  -23619.132      127.94456     -23491.187      189.8511       190.6889       236.00058    
     29100  -23612.954      129.16075     -23483.793      189.81841      190.6575       236.10364    
     29200  -23600.056      129.41681     -23470.64       189.78643      190.62686      236.2067     
     29300  -23590.459      130.93861     -23459.521      189.75341      190.59502      236.30975    
     29400  -23585.272      135.79866     -23449.473      189.72157      190.56518      236.41281    
     29500  -23573.224      132.87795     -23440.346      189.68789      190.53373      236.51587    
     29600  -23565.1        131.23997     -23433.86       189.65593      190.504        236.61892    
     29700  -23560.054      130.65057     -23429.403      189.62206      190.47268      236.72198    
     29800  -23549.507      129.04306     -23420.464      189.5893       190.44268      236.82504    
     29900  -23540.131      131.7392      -23408.391      189.55647      190.41249      236.92809    
     30000  -23531.255      132.29123     -23398.963      189.52259      190.38133      237.03115    
     30100  -23518.541      128.19718     -23390.344      189.48992      190.35107      237.13421    
     30200  -23513.405      131.49503     -23381.91       189.45627      190.31982      237.23727    
     30300  -23505.998      131.88572     -23374.113      189.4238       190.28935      237.34032    
     30400  -23499.035      131.52555     -23367.51       189.39043      190.25788      237.44338    
     30500  -23488.472      128.41302     -23360.059      189.3576       190.22658      237.54644    
     30600  -23481.479      132.75375     -23348.725      189.32451      190.19461      237.64949    
     30700  -23468.038      131.40161     -23336.636      189.29224      190.16321      237.75255    
     30800  -23461.041      132.82271     -23328.218      189.25976      190.13102      237.85561    
     30900  -23451.384      129.56072     -23321.823      189.22699      190.09844      237.95866    
     31000  -23444.328      128.83753     -23315.491      189.19523      190.06647      238.06172    
     31100  -23442.058      130.62783     -23311.431      189.16265      190.03375      238.16478    
     31200  -23430.896      128.65182     -23302.244      189.13034      190.0014       238.26784    
     31300  -23419.335      130.00718     -23289.327      189.09891      189.9695       238.37089    
     31400  -23409.149      130.73078     -23278.418      189.06528      189.93625      238.47395    
     31500  -23399.558      132.35443     -23267.203      189.03339      189.90485      238.57701    
     31600  -23389.33       131.89832     -23257.432      189.00035      189.87225      238.68006    
     31700  -23384.346      134.25856     -23250.088      188.967        189.84009      238.78312    
     31800  -23375.756      129.89405     -23245.862      188.9344       189.80868      238.88618    
     31900  -23367.113      129.72483     -23237.388      188.90003      189.77603      238.98924    
     32000  -23353.451      127.98745     -23225.464      188.86711      189.74531      239.09229    
     32100  -23346.221      131.30384     -23214.917      188.8323       189.71321      239.19535    
     32200  -23336.61       130.78331     -23205.827      188.79803      189.68217      239.29841    
     32300  -23328.378      131.8697      -23196.508      188.76353      189.65071      239.40146    
     32400  -23318.297      130.14336     -23188.153      188.72924      189.61985      239.50452    
     32500  -23311.636      129.15283     -23182.483      188.69396      189.58803      239.60758    
     32600  -23304.527      129.4414      -23175.086      188.65981      189.55712      239.71063    
     32700  -23293.295      130.38772     -23162.907      188.62456      189.52497      239.81369    
     32800  -23283.003      131.84092     -23151.162      188.59113      189.49445      239.91675    
     32900  -23274.156      131.56358     -23142.592      188.55583      189.46139      240.01981    
     33000  -23265.394      130.40671     -23134.987      188.52271      189.43027      240.12286    
     33100  -23257.757      130.13796     -23127.619      188.48755      189.39652      240.22592    
     33200  -23247.828      127.28718     -23120.541      188.45463      189.36532      240.32898    
     33300  -23241.004      130.15212     -23110.852      188.42082      189.33244      240.43203    
     33400  -23228.842      131.15216     -23097.69       188.38656      189.29877      240.53509    
     33500  -23220.198      133.07103     -23087.127      188.35499      189.26707      240.63815    
     33600  -23210.772      131.41382     -23079.359      188.31916      189.23115      240.7412     
     33700  -23204.877      131.46629     -23073.41       188.28831      189.19971      240.84426    
     33800  -23195.647      127.65932     -23067.988      188.25298      189.16384      240.94732    
     33900  -23186.232      127.67419     -23058.558      188.22128      189.13168      241.05038    
     34000  -23175.314      131.45913     -23043.855      188.18703      189.09681      241.15343    
     34100  -23165.28       132.31241     -23032.967      188.15339      189.06311      241.25649    
     34200  -23155.59       132.58413     -23023.006      188.12035      189.02988      241.35955    
     34300  -23146.974      131.72049     -23015.253      188.08611      188.99576      241.4626     
     34400  -23138.982      128.9357      -23010.047      188.05258      188.96266      241.56566    
     34500  -23131.993      130.37584     -23001.617      188.01771      188.92858      241.66872    
     34600  -23120.604      131.77911     -22988.825      187.98458      188.89637      241.77177    
     34700  -23112.739      134.83218     -22977.907      187.94894      188.86228      241.87483    
     34800  -23101.729      132.37455     -22969.354      187.91556      188.8304       241.97789    
     34900  -23091.72       130.26792     -22961.452      187.87969      188.79677      242.08095    
     35000  -23083.943      130.44154     -22953.502      187.8449       188.76471      242.184      
     35100  -23073.44       130.15343     -22943.286      187.8092       188.73178      242.28706    
     35200  -23063.756      133.51143     -22930.244      187.77382      188.70006      242.39012    
     35300  -23050.906      131.19047     -22919.715      187.7375       188.66697      242.49317    
     35400  -23046.728      134.36698     -22912.361      187.70251      188.63533      242.59623    
     35500  -23037.163      129.03058     -22908.132      187.66645      188.60319      242.69929    
     35600  -23027.027      128.08049     -22898.946      187.62986      188.56994      242.80235    
     35700  -23017.184      129.88757     -22887.297      187.59544      188.53842      242.9054     
     35800  -23007.83       132.37247     -22875.458      187.55791      188.5039       243.00846    
     35900  -22997.243      131.51744     -22865.725      187.52468      188.47309      243.11152    
     36000  -22990.219      132.8663      -22857.352      187.48749      188.43797      243.21457    
     36100  -22978.445      128.94452     -22849.501      187.45405      188.40591      243.31763    
     36200  -22973.245      131.7548      -22841.49       187.41828      188.37117      243.42069    
     36300  -22962.377      127.94459     -22834.432      187.38446      188.33791      243.52374    
     36400  -22955.107      131.80139     -22823.305      187.34946      188.30301      243.6268     
     36500  -22943.492      133.14098     -22810.351      187.31669      188.26971      243.72986    
     36600  -22930.982      132.02421     -22798.958      187.28148      188.23347      243.83292    
     36700  -22920.623      131.14416     -22789.479      187.24918      188.20009      243.93597    
     36800  -22916.254      132.14768     -22784.106      187.21462      188.164        244.03903    
     36900  -22908.643      131.19079     -22777.452      187.18156      188.12925      244.14209    
     37000  -22894.823      128.53002     -22766.293      187.1482       188.09457      244.24514    
     37100  -22885.148      130.42175     -22754.727      187.11345      188.05853      244.3482     
     37200  -22876.16       131.74745     -22744.413      187.08083      188.02526      244.45126    
     37300  -22865.272      131.0446      -22734.228      187.04421      187.98841      244.55431    
     37400  -22855.017      131.94784     -22723.069      187.01182      187.95622      244.65737    
     37500  -22843.085      133.34022     -22709.745      186.97492      187.92012      244.76043    
     37600  -22835.866      133.92211     -22701.944      186.94195      187.88824      244.86349    
     37700  -22827.769      130.92304     -22696.846      186.90493      187.85298      244.96654    
     37800  -22821.016      132.68281     -22688.333      186.87056      187.82122      245.0696     
     37900  -22809.725      131.32123     -22678.403      186.83346      187.78718      245.17266    
     38000  -22799.088      132.46466     -22666.623      186.79811      187.75538      245.27571    
     38100  -22788.365      134.55632     -22653.809      186.76146      187.72259      245.37877    
     38200  -22778.366      134.44432     -22643.922      186.72515      187.69064      245.48183    
     38300  -22772.553      132.48298     -22640.07       186.6883       187.6582       245.58488    
     38400  -22763.067      130.96519     -22632.102      186.65187      187.62579      245.68794    
     38500  -22753.001      131.4594      -22621.542      186.61623      187.59361      245.791      
     38600  -22740.783      132.25167     -22608.531      186.57898      187.55994      245.89406    
     38700  -22732.723      134.80789     -22597.915      186.54512      187.52885      245.99711    
     38800  -22721.46       131.49513     -22589.965      186.50716      187.49317      246.10017    
     38900  -22711.231      129.86014     -22581.371      186.4738       187.46156      246.20323    
     39000  -22705.678      133.75127     -22571.927      186.43736      187.42667      246.30628    
     39100  -22695.2        133.2452      -22561.954      186.40332      187.39314      246.40934    
     39200  -22684.13       130.84583     -22553.284      186.36942      187.35903      246.5124     
     39300  -22676.604      130.61573     -22545.988      186.33376      187.32264      246.61545    
     39400  -22666.831      129.50651     -22537.324      186.30224      187.28964      246.71851    
     39500  -22655.051      131.14885     -22523.902      186.26705      187.25256      246.82157    
     39600  -22642.91       131.36422     -22511.546      186.23551      187.21855      246.92463    
     39700  -22633.548      131.56904     -22501.979      186.20169      187.18206      247.02768    
     39800  -22629.083      134.68466     -22494.398      186.16905      187.14744      247.13074    
     39900  -22614.663      125.58711     -22489.076      186.13554      187.11204      247.2338     
     40000  -22611.768      131.9853      -22479.783      186.10243      187.07764      247.33685    
     40100  -22596.325      128.49263     -22467.832      186.06812      187.04281      247.43991    
     40200  -22587.557      131.3913      -22456.166      186.03431      187.00862      247.54297    
     40300  -22574.914      130.71743     -22444.197      186.0007       186.97585      247.64603    
     40400  -22566.542      133.49148     -22433.051      185.96421      186.94094      247.74908    
     40500  -22554.905      131.61745     -22423.288      185.93086      186.90995      247.85214    
     40600  -22547.748      130.22344     -22417.525      185.89337      186.87511      247.9552     
     40700  -22541.613      131.3674      -22410.246      185.85989      186.84477      248.05825    
     40800  -22528.921      129.58633     -22399.335      185.82188      186.81057      248.16131    
     40900  -22515.244      129.90043     -22385.344      185.78748      186.78031      248.26437    
     41000  -22506.875      132.10998     -22374.765      185.75038      186.74765      248.36742    
     41100  -22497.398      131.13458     -22366.264      185.71487      186.71638      248.47048    
     41200  -22489.435      130.9117      -22358.523      185.67894      186.68512      248.57354    
     41300  -22480.779      130.21732     -22350.562      185.6426       186.65317      248.6766     
     41400  -22472.057      129.97538     -22342.082      185.608        186.62244      248.77965    
     41500  -22458.204      128.41817     -22329.786      185.57153      186.58949      248.88271    
     41600  -22450.817      134.67363     -22316.143      185.53755      186.5584       248.98577    
     41700  -22437.921      132.48205     -22305.439      185.50221      186.52509      249.08882    
     41800  -22430.445      133.19102     -22297.254      185.46855      186.49299      249.19188    
     41900  -22420.662      128.86856     -22291.793      185.43467      186.4596       249.29494    
     42000  -22411.403      128.55785     -22282.845      185.40125      186.42614      249.39799    
     42100  -22402.629      131.74358     -22270.886      185.36816      186.39221      249.50105    
     42200  -22390.316      131.02358     -22259.292      185.33565      186.35889      249.60411    
     42300  -22382.11       134.02158     -22248.089      185.30279      186.3247       249.70717    
     42400  -22370.151      133.06679     -22237.084      185.27002      186.29016      249.81022    
     42500  -22355.002      130.09835     -22224.903      185.23854      186.25718      249.91328    
     42600  -22350.633      135.76873     -22214.864      185.20547      186.22173      250.01634    
     42700  -22340.57       130.93807     -22209.631      185.17494      186.1888       250.11939    
     42800  -22331.558      129.89847     -22201.66       185.14193      186.15364      250.22245    
     42900  -22321.033      130.2789      -22190.754      185.11081      186.12019      250.32551    
     43000  -22310.923      132.98637     -22177.936      185.07898      186.08655      250.42856    
     43100  -22299.39       134.7573      -22164.633      185.04648      186.05291      250.53162    
     43200  -22289.976      133.56243     -22156.414      185.01443      186.0204       250.63468    
     43300  -22283.681      131.61155     -22152.069      184.98091      185.98747      250.73774    
     43400  -22273.201      130.9952      -22142.206      184.94894      185.95661      250.84079    
     43500  -22261.406      131.71197     -22129.694      184.91453      185.92387      250.94385    
     43600  -22251.394      134.19212     -22117.202      184.88247      185.89418      251.04691    
     43700  -22243.544      136.30915     -22107.235      184.84661      185.86113      251.14996    
     43800  -22232.44       129.97238     -22102.468      184.81445      185.832        251.25302    
     43900  -22220.843      127.10185     -22093.741      184.7796       185.80078      251.35608    
     44000  -22210.86       129.66325     -22081.197      184.74554      185.77063      251.45913    
     44100  -22200.834      132.19154     -22068.642      184.71231      185.74124      251.56219    
     44200  -22190.899      132.44607     -22058.453      184.67721      185.70995      251.66525    
     44300  -22180.678      130.8991      -22049.779      184.64492      185.68176      251.76831    
     44400  -22171.708      128.92897     -22042.779      184.60899      185.64972      251.87136    
     44500  -22165.171      128.29706     -22036.874      184.57775      185.62278      251.97442    
     44600  -22153.315      129.19002     -22024.125      184.54223      185.59046      252.07748    
     44700  -22140.795      129.77684     -22011.018      184.51156      185.56265      252.18053    
     44800  -22131.873      132.97724     -21998.896      184.47748      185.53064      252.28359    
     44900  -22122.719      134.6297      -21988.089      184.44664      185.50102      252.38665    
     45000  -22112.274      132.43207     -21979.842      184.41514      185.46983      252.48971    
     45100  -22102.92       128.92565     -21973.994      184.38361      185.43788      252.59276    
     45200  -22092.797      129.55431     -21963.243      184.35425      185.40786      252.69582    
     45300  -22080.44       130.39173     -21950.048      184.32157      185.37445      252.79888    
     45400  -22070.795      131.91405     -21938.881      184.29304      185.34521      252.90193    
     45500  -22059.401      130.75635     -21928.645      184.26102      185.31222      253.00499    
     45600  -22051.076      131.90782     -21919.168      184.23201      185.28208      253.10805    
     45700  -22040.696      129.95675     -21910.739      184.20156      185.25004      253.2111     
     45800  -22032.858      129.93865     -21902.919      184.1723       185.21948      253.31416    
     45900  -22022.05       129.86979     -21892.18       184.14185      185.18749      253.41722    
     46000  -22009.25       131.89203     -21877.358      184.11238      185.1567       253.52028    
     46100  -21998.426      132.4454      -21865.981      184.08315      185.12596      253.62333    
     46200  -21988.388      131.06893     -21857.319      184.05273      185.09426      253.72639    
     46300  -21983.407      133.44531     -21849.962      184.02426      185.06512      253.82945    
     46400  -21973.63       131.45179     -21842.178      183.99323      185.03402      253.9325     
     46500  -21964.363      128.66903     -21835.694      183.96403      185.00523      254.03556    
     46600  -21953.891      128.79964     -21825.091      183.9332       184.97513      254.13862    
     46700  -21939.516      129.63401     -21809.882      183.90321      184.94655      254.24167    
     46800  -21930.387      133.1463      -21797.24       183.87282      184.91773      254.34473    
     46900  -21921.327      135.94133     -21785.386      183.84179      184.88889      254.44779    
     47000  -21909.641      134.04294     -21775.598      183.81168      184.86125      254.55085    
     47100  -21898.957      129.54694     -21769.41       183.78002      184.83245      254.6539     
     47200  -21890.782      130.13562     -21760.646      183.75028      184.80591      254.75696    
     47300  -21880.921      132.17755     -21748.743      183.71765      184.77724      254.86002    
     47400  -21869.457      133.11861     -21736.339      183.68768      184.75109      254.96307    
     47500  -21857.546      131.91194     -21725.634      183.65554      184.7226       255.06613    
     47600  -21848.735      133.11785     -21715.617      183.62541      184.69666      255.16919    
     47700  -21839.107      132.77448     -21706.333      183.59523      184.66947      255.27224    
     47800  -21829.894      132.23967     -21697.655      183.56417      184.64128      255.3753     
     47900  -21818.218      127.46311     -21690.754      183.536        184.61552      255.47836    
     48000  -21810.574      128.89491     -21681.679      183.5044       184.58563      255.58142    
     48100  -21795.926      129.50029     -21666.426      183.47794      184.56023      255.68447    
     48200  -21787.538      133.44531     -21654.093      183.44669      184.52974      255.78753    
     48300  -21774.564      130.47853     -21644.085      183.42032      184.5036       255.89059    
     48400  -21765.55       129.99995     -21635.55       183.39075      184.47386      255.99364    
     48500  -21757.677      129.36713     -21628.31       183.36386      184.44614      256.0967     
     48600  -21747.953      128.75997     -21619.193      183.3369       184.41798      256.19976    
     48700  -21735.612      131.88601     -21603.726      183.30846      184.38753      256.30281    
     48800  -21725.067      133.94859     -21591.119      183.28403      184.36095      256.40587    
     48900  -21712.416      130.28292     -21582.133      183.25472      184.32841      256.50893    
     49000  -21705.709      130.72799     -21574.981      183.23111      184.30197      256.61199    
     49100  -21696.333      130.17266     -21566.16       183.20323      184.27106      256.71504    
     49200  -21684.546      130.85        -21553.696      183.17858      184.24322      256.8181     
     49300  -21672.102      134.01107     -21538.091      183.15217      184.21401      256.92116    
     49400  -21660.67       132.00969     -21528.66       183.1252       184.1849       257.02421    
     49500  -21653.432      131.91476     -21521.517      183.10049      184.15849      257.12727    
     49600  -21645.654      132.13322     -21513.521      183.0712       184.12882      257.23033    
     49700  -21634.363      131.1626      -21503.201      183.04686      184.10457      257.33339    
     49800  -21621.801      130.90234     -21490.898      183.01675      184.07518      257.43644    
     49900  -21610.704      134.6201      -21476.084      182.99206      184.05168      257.5395     
     50000  -21600.681      134.30987     -21466.371      182.96305      184.02434      257.64256    
     50100  -21592.971      133.43823     -21459.533      182.93528      183.99896      257.74561    
     50200  -21583.566      133.31037     -21450.256      182.9084       183.97476      257.84867    
     50300  -21573.008      132.24223     -21440.766      182.87834      183.94791      257.95173    
     50400  -21561.954      131.25734     -21430.696      182.85286      183.92625      258.05478    
     50500  -21551.29       131.10376     -21420.186      182.82108      183.89868      258.15784    
     50600  -21540.386      131.66398     -21408.722      182.79539      183.87731      258.2609     
     50700  -21529.325      132.53269     -21396.793      182.76459      183.85134      258.36396    
     50800  -21520.177      134.15604     -21386.021      182.73752      183.82881      258.46701    
     50900  -21510.633      131.59311     -21379.04       182.70976      183.80501      258.57007    
     51000  -21504.339      133.55089     -21370.788      182.68103      183.77961      258.67313    
     51100  -21489.54       130.25845     -21359.282      182.65548      183.75727      258.77618    
     51200  -21478.686      133.15226     -21345.534      182.62597      183.73017      258.87924    
     51300  -21465.351      131.8167      -21333.535      182.60207      183.70816      258.9823     
     51400  -21458.752      134.65122     -21324.1        182.57374      183.68075      259.08535    
     51500  -21448.314      133.43684     -21314.877      182.5509       183.65791      259.18841    
     51600  -21437.029      130.42814     -21306.601      182.52378      183.63049      259.29147    
     51700  -21429.268      131.60243     -21297.665      182.50003      183.60574      259.39453    
     51800  -21418.044      131.07187     -21286.972      182.4754       183.57932      259.49758    
     51900  -21404.282      131.98623     -21272.296      182.45041      183.55235      259.60064    
     52000  -21392.873      133.34746     -21259.526      182.42843      183.52772      259.7037     
     52100  -21385.559      134.12196     -21251.437      182.40272      183.49884      259.80675    
     52200  -21376.417      133.52344     -21242.894      182.38154      183.47463      259.90981    
     52300  -21366.269      133.1091      -21233.16       182.35649      183.44605      260.01287    
     52400  -21353.285      129.52964     -21223.755      182.33519      183.4215       260.11592    
     52500  -21344.718      130.05992     -21214.658      182.31022      183.39348      260.21898    
     52600  -21337.991      131.74929     -21206.242      182.28792      183.3689       260.32204    
     52700  -21326.141      130.28365     -21195.857      182.26477      183.34327      260.4251     
     52800  -21310.591      129.99038     -21180.6        182.24088      183.31761      260.52815    
     52900  -21299.744      131.63138     -21168.112      182.2183       183.29351      260.63121    
     53000  -21292.162      133.50925     -21158.652      182.19296      183.26753      260.73427    
     53100  -21281.572      130.42105     -21151.151      182.17032      183.24546      260.83732    
     53200  -21272.797      130.94923     -21141.848      182.14424      183.22059      260.94038    
     53300  -21260.685      130.36929     -21130.316      182.12072      183.19869      261.04344    
     53400  -21251.146      132.97364     -21118.172      182.09463      183.17524      261.1465     
     53500  -21237.263      131.27818     -21105.985      182.06934      183.15333      261.24955    
     53600  -21227.415      131.55872     -21095.856      182.04442      183.13248      261.35261    
     53700  -21219.154      129.85929     -21089.295      182.01682      183.1095       261.45567    
     53800  -21211.887      132.11295     -21079.774      181.99351      183.09096      261.55872    
     53900  -21196.351      129.49482     -21066.856      181.96494      183.06711      261.66178    
     54000  -21183.564      130.99452     -21052.569      181.94105      183.04785      261.76484    
     54100  -21176.219      134.31837     -21041.901      181.91445      183.02476      261.86789    
     54200  -21167.264      129.67872     -21037.586      181.89066      183.00434      261.97095    
     54300  -21155.938      129.41061     -21026.527      181.86642      182.98262      262.07401    
     54400  -21144.763      131.60369     -21013.159      181.84101      182.95925      262.17707    
     54500  -21135.289      135.3921      -20999.896      181.81978      182.93889      262.28012    
     54600  -21123.299      133.10161     -20990.197      181.7935       182.91359      262.38318    
     54700  -21116.861      132.9799      -20983.882      181.77438      182.89458      262.48624    
     54800  -21104.616      131.27088     -20973.345      181.74898      182.8684       262.58929    
     54900  -21090.912      130.48343     -20960.428      181.72869      182.84682      262.69235    
     55000  -21082.662      134.6851      -20947.977      181.70752      182.82314      262.79541    
     55100  -21070.435      132.23663     -20938.198      181.68502      182.79787      262.89846    
     55200  -21062.995      130.97303     -20932.022      181.6674       182.77668      263.00152    
     55300  -21051.12       129.71694     -20921.403      181.64306      182.74805      263.10458    
     55400  -21038.095      130.5501      -20907.545      181.62725      182.72807      263.20764    
     55500  -21028.102      134.04861     -20894.054      181.60238      182.69917      263.31069    
     55600  -21014.911      131.25019     -20883.661      181.58627      182.67919      263.41375    
     55700  -21008.38       130.28305     -20878.096      181.56324      182.65331      263.51681    
     55800  -20997.215      129.9722      -20867.243      181.54345      182.63054      263.61986    
     55900  -20988.021      132.77023     -20855.251      181.52372      182.60853      263.72292    
     56000  -20974.38       131.05689     -20843.324      181.50047      182.58356      263.82598    
     56100  -20964.79       133.60007     -20831.19       181.48274      182.56451      263.92903    
     56200  -20952.396      129.38991     -20823.006      181.45761      182.53932      264.03209    
     56300  -20945.478      131.01199     -20814.466      181.43933      182.52179      264.13515    
     56400  -20933.829      130.28933     -20803.539      181.41372      182.49806      264.23821    
     56500  -20923.571      134.25698     -20789.314      181.39334      182.48005      264.34126    
     56600  -20910.934      136.97406     -20773.96       181.36884      182.45932      264.44432    
     56700  -20899.807      134.65333     -20765.153      181.34561      182.43996      264.54738    
     56800  -20890.637      133.77721     -20756.859      181.32298      182.42156      264.65043    
     56900  -20881.648      134.3973      -20747.251      181.29797      182.40118      264.75349    
     57000  -20870.881      132.43831     -20738.442      181.27729      182.38451      264.85655    
     57100  -20858.394      129.26208     -20729.132      181.25155      182.36332      264.9596     
     57200  -20849.599      132.30737     -20717.292      181.23046      182.34652      265.06266    
     57300  -20835.236      132.89577     -20702.34       181.20562      182.32584      265.16572    
     57400  -20823.672      134.94142     -20688.73       181.18421      182.30819      265.26878    
     57500  -20814.208      132.77919     -20681.429      181.16117      182.28847      265.37183    
     57600  -20804.776      132.44996     -20672.326      181.13923      182.26912      265.47489    
     57700  -20796.708      134.64621     -20662.061      181.11771      182.24986      265.57795    
     57800  -20784.466      131.66318     -20652.803      181.09583      182.22914      265.681      
     57900  -20775.499      132.14096     -20643.358      181.07599      182.20989      265.78406    
     58000  -20762.808      129.23629     -20633.572      181.05542      182.18876      265.88712    
     58100  -20753.596      130.62637     -20622.97       181.03606      182.16782      265.99018    
     58200  -20740.82       131.2228      -20609.597      181.01708      182.1465       266.09323    
     58300  -20726.32       132.10916     -20594.211      180.99753      182.12403      266.19629    
     58400  -20715.293      133.04172     -20582.251      180.9798       182.1029       266.29935    
     58500  -20706.655      131.14549     -20575.51       180.96115      182.08066      266.4024     
     58600  -20696.848      131.61737     -20565.23       180.94312      182.05919      266.50546    
     58700  -20685.743      131.9827      -20553.76       180.92445      182.03685      266.60852    
     58800  -20676.235      132.75947     -20543.475      180.90693      182.016        266.71157    
     58900  -20667.944      132.90516     -20535.039      180.88777      181.99313      266.81463    
     59000  -20656.776      131.66812     -20525.108      180.87072      181.97247      266.91769    
     59100  -20642.025      129.77683     -20512.248      180.85133      181.94985      267.02075    
     59200  -20628.742      133.49766     -20495.244      180.83346      181.92942      267.1238     
     59300  -20615.652      131.86684     -20483.785      180.81422      181.90807      267.22686    
     59400  -20607.101      131.18582     -20475.916      180.79636      181.88911      267.32992    
     59500  -20599.29       132.69163     -20466.598      180.77612      181.86839      267.43297    
     59600  -20585.794      129.81452     -20455.979      180.75746      181.85029      267.53603    
     59700  -20575.199      129.58243     -20445.616      180.73644      181.83093      267.63909    
     59800  -20564.401      128.35204     -20436.049      180.71599      181.81291      267.74214    
     59900  -20557.501      130.36746     -20427.133      180.69532      181.79566      267.8452     
     60000  -20545.495      130.51251     -20414.982      180.67343      181.77744      267.94826    
     60100  -20531.022      133.11426     -20397.908      180.65337      181.76172      268.05132    
     60200  -20518.506      133.71317     -20384.792      180.62944      181.74232      268.15437    
     60300  -20509.565      134.74807     -20374.817      180.60973      181.72727      268.25743    
     60400  -20498.51       133.12617     -20365.384      180.58744      181.70951      268.36049    
     60500  -20487.268      132.67596     -20354.592      180.56656      181.69289      268.46354    
     60600  -20475.671      131.48108     -20344.19       180.54616      181.67604      268.5666     
     60700  -20467.55       133.33265     -20334.217      180.52438      181.6576       268.66966    
     60800  -20455.005      129.90387     -20325.101      180.50601      181.64208      268.77271    
     60900  -20445.97       129.37362     -20316.597      180.48418      181.62213      268.87577    
     61000  -20432.246      129.78059     -20302.466      180.46702      181.6062       268.97883    
     61100  -20419.409      132.04655     -20287.363      180.44476      181.58422      269.08189    
     61200  -20406.128      132.47731     -20273.65       180.42914      181.56845      269.18494    
     61300  -20393.586      130.73256     -20262.853      180.40781      181.54652      269.288      
     61400  -20386.107      133.1562      -20252.951      180.39237      181.53032      269.39106    
     61500  -20374.452      133.1992      -20241.253      180.37171      181.50794      269.49411    
     61600  -20363.115      133.05558     -20230.059      180.35604      181.49032      269.59717    
     61700  -20350.444      130.15959     -20220.285      180.33729      181.46845      269.70023    
     61800  -20342.456      132.17702     -20210.279      180.32152      181.44956      269.80328    
     61900  -20327.395      127.72856     -20199.667      180.30416      181.42857      269.90634    
     62000  -20319.286      128.95984     -20190.326      180.28772      181.40852      270.0094     
     62100  -20306.035      128.3947      -20177.64       180.27118      181.38824      270.11246    
     62200  -20294.215      133.79843     -20160.417      180.25352      181.36702      270.21551    
     62300  -20280.216      133.85899     -20146.357      180.23731      181.34783      270.31857    
     62400  -20268.379      132.77168     -20135.607      180.21905      181.32732      270.42163    
     62500  -20258.153      132.87089     -20125.282      180.20384      181.30928      270.52468    
     62600  -20244.96       130.93907     -20114.021      180.18424      181.28761      270.62774    
     62700  -20235.533      133.56352     -20101.97       180.16941      181.27086      270.7308     
     62800  -20224.718      133.96687     -20090.751      180.14909      181.24938      270.83386    
     62900  -20214.126      132.21128     -20081.915      180.13492      181.23417      270.93691    
     63000  -20200.115      128.71188     -20071.403      180.11288      181.21206      271.03997    
     63100  -20185.524      129.17445     -20056.35       180.09801      181.19786      271.14303    
     63200  -20174.064      132.13874     -20041.926      180.07559      181.17677      271.24608    
     63300  -20161.48       132.88444     -20028.596      180.05932      181.16271      271.34914    
     63400  -20150.979      130.72504     -20020.254      180.03749      181.14347      271.4522     
     63500  -20140.845      132.00939     -20008.836      180.01907      181.12827      271.55525    
     63600  -20125.766      129.61218     -19996.154      179.99827      181.11094      271.65831    
     63700  -20116.22       133.65264     -19982.568      179.97889      181.09529      271.76137    
     63800  -20106.421      134.24574     -19972.175      179.95881      181.07898      271.86443    
     63900  -20094.598      132.98445     -19961.613      179.93815      181.06222      271.96748    
     64000  -20076.672      128.965       -19947.707      179.9191       181.04717      272.07054    
     64100  -20066.857      134.97865     -19931.879      179.89748      181.02922      272.1736     
     64200  -20051.326      136.55203     -19914.774      179.87971      181.01502      272.27665    
     64300  -20036.021      132.04262     -19903.979      179.85734      180.99612      272.37971    
     64400  -20028.419      133.83476     -19894.584      179.84113      180.98251      272.48277    
     64500  -20017.331      133.28851     -19884.042      179.81876      180.96199      272.58582    
     64600  -20003.526      130.9132      -19872.613      179.80317      180.94778      272.68888    
     64700  -19991.647      130.6952      -19860.952      179.78233      180.92718      272.79194    
     64800  -19979.249      130.91244     -19848.337      179.76702      180.91158      272.895      
     64900  -19969.615      132.44167     -19837.173      179.74691      180.89051      272.99805    
     65000  -19952.276      126.21252     -19826.063      179.73149      180.87403      273.10111    
     65100  -19940.059      129.4037      -19810.655      179.71289      180.85358      273.20417    
     65200  -19925.821      132.63707     -19793.184      179.69634      180.83477      273.30722    
     65300  -19912.14       137.30068     -19774.839      179.67974      180.81558      273.41028    
     65400  -19896.936      137.9528      -19758.983      179.66236      180.79488      273.51334    
     65500  -19885.985      135.33057     -19750.654      179.64809      180.77729      273.61639    
     65600  -19874.1        133.35025     -19740.75       179.63018      180.75571      273.71945    
     65700  -19863.049      132.8004      -19730.249      179.61624      180.73816      273.82251    
     65800  -19849.882      131.60504     -19718.277      179.59801      180.71612      273.92557    
     65900  -19836.384      130.76713     -19705.617      179.58393      180.69863      274.02862    
     66000  -19824.445      131.82268     -19692.622      179.5653       180.67672      274.13168    
     66100  -19807.349      128.10782     -19679.241      179.55097      180.65965      274.23474    
     66200  -19798.506      130.80069     -19667.706      179.53196      180.63869      274.33779    
     66300  -19784.101      128.39745     -19655.704      179.51683      180.62178      274.44085    
     66400  -19771.373      131.90301     -19639.47       179.4976       180.60159      274.54391    
     66500  -19756.882      133.015       -19623.867      179.4807       180.58413      274.64696    
     66600  -19743.865      135.18752     -19608.677      179.46226      180.56545      274.75002    
     66700  -19725.696      131.1281      -19594.567      179.44441      180.54809      274.85308    
     66800  -19711.354      130.72103     -19580.632      179.42585      180.53054      274.95614    
     66900  -19699.976      133.01722     -19566.959      179.4072       180.51353      275.05919    
     67000  -19687.39       133.15701     -19554.233      179.3881       180.49657      275.16225    
     67100  -19672.322      130.98345     -19541.339      179.36896      180.47992      275.26531    
     67200  -19659.929      132.6028      -19527.326      179.34915      180.46318      275.36836    
     67300  -19644.58       131.13367     -19513.446      179.32958      180.4468       275.47142    
     67400  -19630.307      131.67468     -19498.632      179.30952      180.43015      275.57448    
     67500  -19617.291      133.51401     -19483.777      179.29029      180.41427      275.67754    
     67600  -19603.989      134.16795     -19469.821      179.27016      180.39752      275.78059    
     67700  -19590.244      133.34615     -19456.898      179.25052      180.38112      275.88365    
     67800  -19575.076      132.35924     -19442.717      179.23132      180.36469      275.98671    
     67900  -19559.79       132.11493     -19427.675      179.21103      180.34721      276.08976    
     68000  -19546.004      132.9959      -19413.008      179.1923       180.33119      276.19282    
     68100  -19529.171      130.52697     -19398.644      179.17202      180.31354      276.29588    
     68200  -19517.97       133.29871     -19384.671      179.15431      180.29785      276.39893    
     68300  -19504.572      134.56426     -19370.008      179.13364      180.27872      276.50199    
     68400  -19489.517      134.65782     -19354.859      179.11653      180.26281      276.60505    
     68500  -19472.644      132.71829     -19339.926      179.09617      180.24288      276.70811    
     68600  -19458.305      133.39744     -19324.908      179.07984      180.22661      276.81116    
     68700  -19443.968      134.44912     -19309.519      179.05984      180.20608      276.91422    
     68800  -19428.166      133.2047      -19294.961      179.0437       180.189        277.01728    
     68900  -19413.921      133.30318     -19280.618      179.02473      180.16832      277.12033    
     69000  -19398.845      133.19393     -19265.651      179.00858      180.14983      277.22339    
     69100  -19382.231      131.43633     -19250.795      178.99051      180.12885      277.32645    
     69200  -19368.778      133.22439     -19235.553      178.97445      180.10968      277.4295     
     69300  -19351.783      131.31377     -19220.469      178.95696      180.0886       277.53256    
     69400  -19338.24       133.52427     -19204.716      178.94091      180.06864      277.63562    
     69500  -19324.04       134.94157     -19189.098      178.924        180.04781      277.73868    
     69600  -19306.526      133.2049      -19173.321      178.90795      180.0277       277.84173    
     69700  -19289.013      131.36428     -19157.649      178.8908       180.00686      277.94479    
     69800  -19273.918      131.70692     -19142.211      178.87396      179.98685      278.04785    
     69900  -19260.651      133.8259      -19126.825      178.85662      179.96661      278.1509     
     70000  -19243.786      132.79861     -19110.988      178.83911      179.94662      278.25396    
     70100  -19229.685      133.97611     -19095.709      178.82171      179.92706      278.35702    
     70200  -19211.973      132.40578     -19079.567      178.80342      179.90718      278.46007    
     70300  -19197.791      133.65106     -19064.14       178.78502      179.88784      278.56313    
     70400  -19183.455      135.78973     -19047.665      178.76617      179.86866      278.66619    
     70500  -19167.174      136.03836     -19031.136      178.74694      179.84971      278.76925    
     70600  -19147.434      132.2415      -19015.193      178.72764      179.83139      278.8723     
     70700  -19131.251      132.153       -18999.098      178.70759      179.8128       278.97536    
     70800  -19116.97       133.73509     -18983.235      178.68825      179.79542      279.07842    
     70900  -19103.911      136.01718     -18967.894      178.66678      179.7765       279.18147    
     71000  -19083.575      133.4918      -18950.084      178.64736      179.75989      279.28453    
     71100  -19068.096      133.99708     -18934.099      178.62565      179.74137      279.38759    
     71200  -19053.685      135.34458     -18918.34       178.60558      179.72446      279.49065    
     71300  -19037.332      134.60042     -18902.731      178.58357      179.70589      279.5937     
     71400  -19020.011      135.10332     -18884.908      178.56355      179.68934      279.69676    
     71500  -19003.398      135.57201     -18867.826      178.54115      179.67052      279.79982    
     71600  -18986.357      136.209       -18850.148      178.52088      179.65373      279.90287    
     71700  -18969.334      136.98523     -18832.349      178.49885      179.63472      280.00593    
     71800  -18952.036      136.03488     -18816.002      178.47867      179.61749      280.10899    
     71900  -18935.486      135.90634     -18799.579      178.45701      179.59844      280.21204    
     72000  -18918.637      134.41214     -18784.225      178.43667      179.58026      280.3151     
     72100  -18906.79       137.78762     -18769.002      178.41536      179.56063      280.41816    
     72200  -18886.842      135.98758     -18750.854      178.39581      179.54236      280.52122    
     72300  -18868.194      134.56427     -18733.63       178.37438      179.5216       280.62427    
     72400  -18852.625      136.34708     -18716.278      178.35539      179.50279      280.72733    
     72500  -18834.109      136.76373     -18697.345      178.33435      179.48136      280.83039    
     72600  -18815.139      136.32155     -18678.817      178.31544      179.46193      280.93344    
     72700  -18800.096      138.17183     -18661.924      178.29479      179.44008      281.0365     
     72800  -18780.779      138.59478     -18642.184      178.27593      179.41985      281.13956    
[...]
     81600  -24550.18       139.34462     -24410.835      177.87385      178.75369      290.20858    
     81700  -24552.822      124.5826      -24428.239      177.88995      178.79626      290.31163    
     81800  -24554.831      119.6494      -24435.181      177.91101      178.84417      290.41469    
     81900  -24553.265      128.72455     -24424.541      177.92848      178.88972      290.51775    
     82000  -24544.67       136.33878     -24408.331      177.95153      178.93999      290.6208     
     82100  -24537.326      137.77132     -24399.554      177.97157      178.98466      290.72386    
     82200  -24542.155      138.9387      -24403.216      177.99932      179.0311       290.82692    
     82300  -24548.342      131.068       -24417.274      178.02497      179.07128      290.92997    
     82400  -24553.539      125.2127      -24428.326      178.06109      179.11551      291.03303    
     82500  -24552.563      125.82884     -24426.734      178.0972       179.14903      291.13609    
     82600  -24547.688      132.38689     -24415.301      178.1405       179.18683      291.23915    
     82700  -24549.074      141.9348      -24407.139      178.18039      179.22278      291.3422     
     82800  -24555.445      138.61555     -24416.83       178.22041      179.25996      291.44526    
     82900  -24563.961      126.20875     -24437.752      178.25796      179.28902      291.54832    
     83000  -24562.534      116.9584      -24445.575      178.29959      179.32621      291.65137    
     83100  -24556.489      126.1689      -24430.321      178.33702      179.36444      291.75443    
     83200  -24546.377      140.41096     -24405.966      178.37875      179.40893      291.85749    
     83300  -24542.721      144.16134     -24398.56       178.41422      179.4527       291.96054    
     83400  -24551.083      134.06432     -24417.019      178.45148      179.50867      292.0636     
     83500  -24559.329      122.79715     -24436.531      178.48065      179.55239      292.16666    
     83600  -24559.732      121.78278     -24437.95       178.51103      179.60241      292.26972    
     83700  -24552.715      132.57388     -24420.141      178.54135      179.65464      292.37277    
     83800  -24545.137      141.0823      -24404.055      178.57192      179.70423      292.47583    
     83900  -24551.872      143.55634     -24408.315      178.59705      179.74819      292.57889    
     84000  -24557.366      127.25693     -24430.109      178.62315      179.79699      292.68194    
     84100  -24560.918      118.62465     -24442.294      178.6434       179.84306      292.785      
     84200  -24558.967      125.06642     -24433.901      178.67143      179.89689      292.88806    
     84300  -24552.558      138.70065     -24413.858      178.6919       179.94526      292.99111    
     84400  -24549.825      144.37571     -24405.449      178.71828      180.00062      293.09417    
     84500  -24556.858      136.93844     -24419.919      178.73351      180.04713      293.19723    
     84600  -24561.093      122.56969     -24438.523      178.75828      180.10056      293.30029    
     84700  -24562.561      120.08912     -24442.472      178.77462      180.14442      293.40334    
     84800  -24556.311      128.28438     -24428.027      178.7998       180.19659      293.5064     
     84900  -24549.904      140.88198     -24409.022      178.81797      180.24456      293.60946    
     85000  -24548.824      142.60075     -24406.223      178.84665      180.30621      293.71251    
     85100  -24554.362      131.44285     -24422.92       178.86791      180.35451      293.81557    
     85200  -24558.875      120.78709     -24438.088      178.89819      180.40715      293.91863    
     85300  -24559.5        123.77051     -24435.729      178.92271      180.45456      294.02169    
     85400  -24552.953      134.80912     -24418.144      178.95591      180.50719      294.12474    
     85500  -24544.703      139.85791     -24404.846      178.98649      180.55146      294.2278     
     85600  -24550.449      139.21531     -24411.234      179.02156      180.5946       294.33086    
     85700  -24557.851      128.08762     -24429.763      179.04939      180.63164      294.43391    
     85800  -24560.483      121.15707     -24439.326      179.08552      180.68177      294.53697    
     85900  -24561.692      128.97696     -24432.715      179.11522      180.72976      294.64003    
     86000  -24555.857      135.79437     -24420.063      179.14428      180.78104      294.74308    
     86100  -24554.727      138.87689     -24415.85       179.16892      180.83348      294.84614    
     86200  -24556.045      132.02845     -24424.016      179.19427      180.89162      294.9492     
     86300  -24556.026      122.91866     -24433.107      179.21347      180.9433       295.05226    
     86400  -24558.11       126.99471     -24431.115      179.23314      180.99955      295.15531    
     86500  -24551.029      131.111       -24419.918      179.24764      181.04982      295.25837    
     86600  -24548.246      138.12928     -24410.117      179.26352      181.10307      295.36143    
     86700  -24549.357      137.05847     -24412.299      179.27644      181.15583      295.46448    
     86800  -24553.531      129.52765     -24424.003      179.291        181.21353      295.56754    
     86900  -24557.812      125.09026     -24432.721      179.30188      181.26567      295.6706     
     87000  -24554.647      126.20034     -24428.447      179.31773      181.31989      295.77365    
     87100  -24550.095      134.16249     -24415.933      179.33171      181.36788      295.87671    
     87200  -24546.606      136.40902     -24410.197      179.34962      181.40699      295.97977    
     87300  -24551.343      133.5157      -24417.827      179.3662       181.43738      296.08283    
     87400  -24555.633      126.46744     -24429.165      179.3874       181.47588      296.18588    
     87500  -24557.835      125.24198     -24432.593      179.40774      181.5117       296.28894    
     87600  -24555.196      129.35738     -24425.838      179.43036      181.54486      296.392      
     87700  -24549.756      135.22891     -24414.527      179.45045      181.57424      296.49505    
     87800  -24544.877      136.16058     -24408.717      179.47407      181.6069       296.59811    
     87900  -24550.039      134.13553     -24415.904      179.49376      181.63333      296.70117    
     88000  -24556.121      129.12771     -24426.994      179.5153       181.66029      296.80422    
     88100  -24555.657      125.03681     -24430.621      179.53178      181.68428      296.90728    
     88200  -24555.144      132.01362     -24423.13       179.55214      181.71098      297.01034    
     88300  -24549.585      136.21125     -24413.374      179.5702       181.73672      297.1134     
     88400  -24552.19       138.16608     -24414.024      179.58499      181.76048      297.21645    
     88500  -24553.668      129.67016     -24423.998      179.59686      181.78858      297.31951    
     88600  -24558.158      127.53643     -24430.622      179.6082       181.8212       297.42257    
     88700  -24554.525      128.61954     -24425.905      179.61626      181.84825      297.52562    
     88800  -24550.213      135.06535     -24415.148      179.62479      181.87775      297.62868    
     88900  -24548.356      138.17249     -24410.183      179.6321       181.90503      297.73174    
     89000  -24550.078      133.41252     -24416.665      179.63949      181.92769      297.8348     
     89100  -24551.265      126.30701     -24424.958      179.64574      181.94825      297.93785    
     89200  -24551.727      127.17972     -24424.548      179.65705      181.97127      298.04091    
     89300  -24550.746      134.49782     -24416.249      179.66761      181.98648      298.14397    
     89400  -24545.85       136.18733     -24409.663      179.68208      182.00119      298.24702    
     89500  -24545.155      135.80398     -24409.351      179.69121      182.00268      298.35008    
     89600  -24545.346      131.37355     -24413.973      179.7075       182.00072      298.45314    
     89700  -24547.378      129.59601     -24417.782      179.72262      182.00394      298.55619    
     89800  -24549.313      130.6363      -24418.676      179.74211      182.01301      298.65925    
     89900  -24548.878      130.78963     -24418.088      179.75573      182.01214      298.76231    
     90000  -24546.44       130.07508     -24416.365      179.77279      182.01287      298.86537    
     90100  -24545.861      132.46611     -24413.395      179.78677      182.01099      298.96842    
     90200  -24546.846      134.79505     -24412.051      179.80418      182.00718      299.07148    
     90300  -24548.598      134.21089     -24414.387      179.81725      181.99558      299.17454    
     90400  -24546.359      127.23718     -24419.121      179.83012      181.98105      299.27759    
     90500  -24549.195      130.17309     -24419.022      179.83807      181.95882      299.38065    
     90600  -24546.96       132.43008     -24414.53       179.84843      181.93776      299.48371    
     90700  -24545.436      135.40497     -24410.031      179.85214      181.91215      299.58676    
     90800  -24541.44       132.456       -24408.984      179.85838      181.89128      299.68982    
     90900  -24543.382      133.05653     -24410.326      179.86007      181.87259      299.79288    
     91000  -24541.848      130.05516     -24411.792      179.86898      181.86038      299.89594    
     91100  -24541.434      130.22562     -24411.209      179.87342      181.83662      299.99899    
     91200  -24540.589      131.12449     -24409.465      179.8822       181.80862      300.10205    
     91300  -24541.1        134.23796     -24406.862      179.89079      181.77719      300.20511    
     91400  -24538.097      132.87802     -24405.218      179.90462      181.74267      300.30816    
     91500  -24539.992      133.58396     -24406.408      179.91787      181.70404      300.41122    
     91600  -24539.082      129.56056     -24409.521      179.93335      181.66375      300.51428    
     91700  -24541.902      130.74052     -24411.161      179.94948      181.61771      300.61733    
     91800  -24540.698      131.50121     -24409.197      179.97014      181.57219      300.72039    
     91900  -24539.049      133.92594     -24405.123      179.99124      181.52532      300.82345    
     92000  -24536.355      132.65964     -24403.695      180.01376      181.47677      300.92651    
     92100  -24537.669      131.60076     -24406.068      180.03461      181.4316       301.02956    
     92200  -24537.291      128.93925     -24408.351      180.05326      181.38987      301.13262    
     92300  -24538.727      132.09652     -24406.631      180.07069      181.34814      301.23568    
     92400  -24536.999      135.27328     -24401.725      180.08929      181.30352      301.33873    
     92500  -24534.252      135.21159     -24399.04       180.10257      181.2546       301.44179    
     92600  -24535.154      132.75914     -24402.395      180.11818      181.21298      301.54485    
     92700  -24537.212      128.38512     -24408.827      180.13188      181.17446      301.6479     
     92800  -24539.493      129.19529     -24410.298      180.14653      181.14091      301.75096    
     92900  -24533.229      128.69956     -24404.53       180.16203      181.11377      301.85402    
     93000  -24530.917      135.22166     -24395.695      180.18127      181.08875      301.95708    
     93100  -24525.733      134.54211     -24391.191      180.20232      181.06114      302.06013    
     93200  -24527.3        132.95712     -24394.342      180.2248       181.03014      302.16319    
     93300  -24532.808      131.54389     -24401.264      180.25409      181.0063       302.26625    
     93400  -24531.705      127.14476     -24404.56       180.28114      180.977        302.3693     
     93500  -24528.441      127.87016     -24400.571      180.31254      180.94953      302.47236    
     93600  -24525.279      133.14048     -24392.139      180.34187      180.92678      302.57542    
     93700  -24524.951      137.51414     -24387.437      180.37263      180.91154      302.67848    
     93800  -24528.074      136.3309      -24391.743      180.40313      180.89803      302.78153    
     93900  -24524.795      124.54795     -24400.247      180.43514      180.88497      302.88459    
     94000  -24526.976      123.25588     -24403.72       180.46567      180.86813      302.98765    
     94100  -24527.841      128.97951     -24398.861      180.49828      180.85387      303.0907     
     94200  -24524.152      132.68658     -24391.465      180.531        180.84526      303.19376    
     94300  -24523.555      134.77117     -24388.784      180.55894      180.83647      303.29682    
     94400  -24526.941      133.65059     -24393.291      180.58953      180.83204      303.39987    
     94500  -24530.87       130.00326     -24400.867      180.61666      180.83111      303.50293    
     94600  -24532.338      126.20662     -24406.131      180.64359      180.83         303.60599    
     94700  -24537.551      131.51654     -24406.035      180.67111      180.82316      303.70905    
     94800  -24536.933      132.31473     -24404.618      180.70024      180.81784      303.8121     
     94900  -24534.69       130.66852     -24404.021      180.72762      180.80871      303.91516    
     95000  -24537.386      132.55242     -24404.834      180.76041      180.80314      304.01822    
     95100  -24536.296      130.82801     -24405.468      180.79192      180.80189      304.12127    
     95200  -24536.481      131.95648     -24404.525      180.82836      180.80177      304.22433    
     95300  -24533.606      130.30545     -24403.3        180.86806      180.79157      304.32739    
     95400  -24536.936      134.10856     -24402.827      180.91619      180.78331      304.43044    
     95500  -24538.233      132.46501     -24405.768      180.96217      180.76524      304.5335     
     95600  -24543.093      133.97145     -24409.121      181.01564      180.74225      304.63656    
     95700  -24540.357      129.39351     -24410.963      181.07035      180.72467      304.73962    
     95800  -24541.687      130.64027     -24411.046      181.1254       180.71452      304.84267    
     95900  -24542.444      131.77177     -24410.672      181.17954      180.70369      304.94573    
     96000  -24541.746      131.71177     -24410.034      181.23562      180.69749      305.04879    
     96100  -24543.619      133.41078     -24410.209      181.29268      180.69767      305.15184    
     96200  -24543.57       132.06448     -24411.506      181.34785      180.69089      305.2549     
     96300  -24541.826      129.5855      -24412.24       181.39986      180.68284      305.35796    
     96400  -24542.076      130.16577     -24411.91       181.44726      180.67257      305.46101    
     96500  -24544.437      133.72058     -24410.717      181.49183      180.65964      305.56407    
     96600  -24542.524      132.00223     -24410.522      181.53679      180.65149      305.66713    
     96700  -24541.54       129.68686     -24411.853      181.57781      180.64722      305.77019    
     96800  -24544.611      130.72231     -24413.889      181.6178       180.65192      305.87324    
     96900  -24546.039      129.97378     -24416.066      181.65571      180.66174      305.9763     
     97000  -24547.431      130.42282     -24417.008      181.69175      180.66836      306.07936    
     97100  -24548.621      132.231       -24416.39       181.72748      180.67204      306.18241    
     97200  -24549.175      131.67087     -24417.504      181.76776      180.67498      306.28547    
     97300  -24552.173      131.13629     -24421.037      181.80621      180.6722       306.38853    
     97400  -24554.81       130.04619     -24424.764      181.84855      180.67606      306.49158    
     97500  -24553.971      129.00878     -24424.962      181.89112      180.68074      306.59464    
     97600  -24552.077      130.68958     -24421.388      181.94279      180.69362      306.6977     
     97700  -24550.385      133.60058     -24416.785      181.99191      180.70502      306.80076    
     97800  -24546.173      131.61906     -24414.554      182.04274      180.72125      306.90381    
     97900  -24548.561      133.21201     -24415.349      182.09606      180.73436      307.00687    
     98000  -24547.566      129.39736     -24418.169      182.15265      180.74561      307.10993    
     98100  -24551.065      129.56837     -24421.497      182.20647      180.75328      307.21298    
     98200  -24550.639      128.56543     -24422.074      182.266        180.7622       307.31604    
     98300  -24552.301      132.38482     -24419.916      182.32812      180.77196      307.4191     
     98400  -24552.521      135.03011     -24417.49       182.39142      180.79091      307.52216    
     98500  -24551.033      133.86588     -24417.167      182.46392      180.8152       307.62521    
     98600  -24551.458      131.18814     -24420.27       182.53765      180.83857      307.72827    
     98700  -24553.197      130.50428     -24422.692      182.60558      180.86362      307.83133    
     98800  -24549.827      128.26899     -24421.558      182.67519      180.89252      307.93438    
     98900  -24549.793      132.37822     -24417.415      182.74172      180.91782      308.03744    
     99000  -24548.106      133.92098     -24414.185      182.80222      180.94005      308.1405     
     99100  -24550.239      133.66296     -24416.576      182.86406      180.96555      308.24355    
     99200  -24551.707      130.10508     -24421.602      182.92657      180.99885      308.34661    
     99300  -24553.872      130.43697     -24423.435      182.98556      181.03721      308.44967    
     99400  -24555.77       133.56233     -24422.208      183.05172      181.08199      308.55273    
     99500  -24555.312      133.45491     -24421.857      183.11543      181.12572      308.65578    
     99600  -24554.234      131.25963     -24422.975      183.17913      181.16588      308.75884    
     99700  -24554.381      129.34403     -24425.037      183.2446       181.20549      308.8619     
     99800  -24557.932      130.88921     -24427.043      183.31238      181.24563      308.96495    
     99900  -24556.765      128.26402     -24428.501      183.37497      181.282        309.06801    
    100000  -24559.016      130.30511     -24428.711      183.43744      181.32039      309.17107    
Loop time of 2673.92 on 12 procs for 100000 steps with 3400 atoms

Performance: 3.231 ns/day, 7.428 hours/ns, 37.398 timesteps/s, 127.154 katom-step/s
75.0% CPU use with 12 MPI tasks x 1 OpenMP threads

MPI task timing breakdown:
Section |  min time  |  avg time  |  max time  |%varavg| %total
---------------------------------------------------------------
Pair    | 446.66     | 576.7      | 910.56     | 485.3 | 21.57
Neigh   | 1.421      | 1.9016     | 2.7942     |  35.8 |  0.07
Comm    | 513.2      | 831.18     | 964.18     | 381.8 | 31.08
Output  | 1.8725     | 2.0651     | 2.1851     |   6.0 |  0.08
Modify  | 1146.2     | 1191.9     | 1226.2     |  71.0 | 44.58
Other   |            | 70.13      |            |       |  2.62

Nlocal:        283.333 ave        1163 max           0 min
Histogram: 5 1 3 1 0 1 0 0 0 1
Nghost:        919.417 ave        1917 max         279 min
Histogram: 2 3 3 0 0 0 1 0 1 2
Neighs:              0 ave           0 max           0 min
Histogram: 12 0 0 0 0 0 0 0 0 0

Total # of neighbors = 0
Ave neighs/atom = 0
Neighbor list builds = 367
Dangerous builds = 0
Total wall time: 0:44:35
