LAMMPS (2 Aug 2023 - Update 3)
OMP_NUM_THREADS environment is not set. Defaulting to 1 thread. (src/comm.cpp:98)
  using 1 OpenMP thread(s) per MPI task
Reading data file ...
  orthogonal box = (-100 -100 -2.331251) to (100 100 38.891558)
  3 by 4 by 1 MPI processor grid
  reading atoms ...
  920 atoms
  read_data CPU = 0.012 seconds
Replication is creating a 1x1x9 = 9 times larger system...
  orthogonal box = (-100 -100 -2.331251) to (100 100 368.67403)
  2 by 2 by 3 MPI processor grid
  8280 atoms
  replicate CPU = 0.010 seconds
2160 atoms in group SR
Deleted 2160 atoms, new total = 6120
System init for write_data ...
WARNING: Communication cutoff is 0.0. No ghost atoms will be generated. Atoms may get lost. (src/comm_brick.cpp:210)
Reading airebo potential file CH.airebo with DATE: 2011-10-25
Reading airebo potential file CH.airebo with DATE: 2011-10-25
Neighbor list info ...
  update: every = 1 steps, delay = 0 steps, check = yes
  max neighbors/atom: 2000, page size: 100000
  master list distance cutoff = 13.2
  ghost atom cutoff = 13.2
  binsize = 6.6, bins = 31 31 57
  5 neighbor lists, perpetual/occasional/extra = 5 0 0
  (1) pair airebo, perpetual, skip from (4)
      attributes: full, newton on, ghost
      pair build: skip/ghost
      stencil: none
      bin: none
  (2) pair airebo, perpetual, skip from (4)
      attributes: full, newton on, ghost
      pair build: skip/ghost
      stencil: none
      bin: none
  (3) pair lj/cut, perpetual, skip from (5)
      attributes: half, newton on, cut 13
      pair build: skip
      stencil: none
      bin: none
  (4) neighbor class addition, perpetual
      attributes: full, newton on, ghost
      pair build: full/bin/ghost
      stencil: full/ghost/bin/3d
      bin: standard
  (5) neighbor class addition, perpetual
      attributes: half, newton on, cut 13
      pair build: half/bin/atomonly/newton
      stencil: half/bin/3d
      bin: standard
Setting up sd style minimization ...
  Unit style    : metal
  Current step  : 0
Per MPI rank memory allocation (min/avg/max) = 9.405 | 9.979 | 10.17 Mbytes
   Step          Temp          E_pair         E_mol          TotEng         Press     
         0   0             -45285.397      0             -45285.397     -0.21847277   
         1   0             -45285.614      0             -45285.614     -0.39920433   
Loop time of 0.0582383 on 12 procs for 1 steps with 6120 atoms

75.5% CPU use with 12 MPI tasks x 1 OpenMP threads

Minimization stats:
  Stopping criterion = energy tolerance
  Energy initial, next-to-last, final = 
      -45285.397178374   -45285.397178374  -45285.6144303099
  Force two-norm initial, final = 7.6826193 0.73619159
  Force max component initial, final = 0.098019031 0.0093756234
  Final line search alpha, max atom move = 1 0.0093756234
  Iterations, force evaluations = 1 2

MPI task timing breakdown:
Section |  min time  |  avg time  |  max time  |%varavg| %total
---------------------------------------------------------------
Pair    | 0.020373   | 0.024483   | 0.036325   |   3.1 | 42.04
Neigh   | 0          | 0          | 0          |   0.0 |  0.00
Comm    | 0.014793   | 0.02672    | 0.030714   |   2.9 | 45.88
Output  | 0          | 0          | 0          |   0.0 |  0.00
Modify  | 0          | 0          | 0          |   0.0 |  0.00
Other   |            | 0.007035   |            |       | 12.08

Nlocal:            510 ave         561 max         459 min
Histogram: 3 0 0 0 0 6 0 0 0 3
Nghost:           1950 ave        2001 max        1899 min
Histogram: 3 0 0 0 0 6 0 0 0 3
Neighs:              0 ave           0 max           0 min
Histogram: 12 0 0 0 0 0 0 0 0 0

Total # of neighbors = 0
Ave neighs/atom = 0
Neighbor list builds = 0
Dangerous builds = 0
Setting up Verlet run ...
  Unit style    : metal
  Current step  : 1
  Time step     : 0.001
Per MPI rank memory allocation (min/avg/max) = 10.79 | 10.79 | 10.8 Mbytes
   Step          Temp          E_pair         E_mol          TotEng         Press          Volume    
         1   300           -45285.614      0             -45048.332      16.679124      14840211     
Loop time of 0.0144789 on 12 procs for 0 steps with 6120 atoms

74.7% CPU use with 12 MPI tasks x 1 OpenMP threads

MPI task timing breakdown:
Section |  min time  |  avg time  |  max time  |%varavg| %total
---------------------------------------------------------------
Pair    | 0          | 0          | 0          |   0.0 |  0.00
Neigh   | 0          | 0          | 0          |   0.0 |  0.00
Comm    | 0          | 0          | 0          |   0.0 |  0.00
Output  | 0          | 0          | 0          |   0.0 |  0.00
Modify  | 0          | 0          | 0          |   0.0 |  0.00
Other   |            | 0.01448    |            |       |100.00

Nlocal:            510 ave         510 max         510 min
Histogram: 12 0 0 0 0 0 0 0 0 0
Nghost:           1950 ave        1950 max        1950 min
Histogram: 12 0 0 0 0 0 0 0 0 0
Neighs:              0 ave           0 max           0 min
Histogram: 12 0 0 0 0 0 0 0 0 0

Total # of neighbors = 0
Ave neighs/atom = 0
Neighbor list builds = 0
Dangerous builds = 0
WARNING: New thermo_style command, previous thermo_modify settings will be lost (src/output.cpp:903)
WARNING: Dump 2 includes no atom IDs and is not sorted by ID. This may complicate post-processing tasks or visualization (src/dump.cpp:221)
Setting up Verlet run ...
  Unit style    : metal
  Current step  : 0
  Time step     : 0.001
Per MPI rank memory allocation (min/avg/max) = 12.29 | 12.29 | 12.3 Mbytes
   Step         PotEng         KinEng         TotEng           Lx             Ly             Lz      
         0  -45285.614      237.28285     -45048.332      200            200            371.00528    
       100  -45146.632      116.99428     -45029.638      200.00386      200.00592      371.19078    
       200  -45150.173      147.0607      -45003.113      199.99929      200.00382      371.37629    
       300  -45132.595      160.96372     -44971.631      200.00341      200.01047      371.56179    
       400  -45107.676      170.79283     -44936.884      199.99821      200.00815      371.74729    
       500  -45093.645      192.96077     -44900.684      200.00282      200.01571      371.93279    
       600  -45075.823      210.89562     -44864.927      199.99543      200.01131      372.1183     
       700  -45060.238      227.99828     -44832.239      200.00137      200.02013      372.3038     
       800  -45047.599      240.88213     -44806.717      199.99375      200.01514      372.4893     
       900  -45040.783      247.77877     -44793.004      199.99918      200.02239      372.6748     
      1000  -45038.398      241.11211     -44797.286      199.99203      200.017        372.86031    
      1100  -45047.166      235.89816     -44811.268      199.99605      200.02238      373.04581    
      1200  -45055.031      235.15611     -44819.875      199.99006      200.01764      373.23131    
      1300  -45047.537      229.70104     -44817.836      199.99341      200.02213      373.41682    
      1400  -45047.137      240.56909     -44806.568      199.9875       200.01734      373.60232    
      1500  -45039.769      243.63444     -44796.134      199.9896       200.02043      373.78782    
      1600  -45034.454      241.07164     -44793.382      199.98454      200.01627      373.97332    
      1700  -45038.367      238.53417     -44799.833      199.98675      200.01886      374.15883    
      1800  -45042.688      235.4708      -44807.218      199.98102      200.01331      374.34433    
      1900  -45040.598      231.81422     -44808.783      199.98271      200.01505      374.52983    
      2000  -45037.265      237.04559     -44800.22       199.97723      200.00972      374.71533    
      2100  -45031.139      242.38211     -44788.757      199.97835      200.01144      374.90084    
      2200  -45026.161      242.05313     -44784.108      199.97264      200.00673      375.08634    
      2300  -45028.232      240.13008     -44788.102      199.97152      200.00742      375.27184    
      2400  -45029.375      234.52285     -44794.852      199.96508      200.00346      375.45734    
      2500  -45030.546      233.6279      -44796.918      199.96329      200.00444      375.64285    
      2600  -45023.783      232.50523     -44791.278      199.95636      200.00085      375.82835    
      2700  -45017.523      235.95216     -44781.571      199.95282      200.00112      376.01385    
      2800  -45015.272      240.46547     -44774.807      199.94591      199.99823      376.19935    
      2900  -45014.141      238.76818     -44775.372      199.94171      199.99826      376.38486    
      3000  -45017.868      238.11515     -44779.753      199.93437      199.99491      376.57036    
      3100  -45016.319      234.25993     -44782.059      199.93024      199.99443      376.75586    
      3200  -45011.101      233.76033     -44777.34       199.92282      199.98995      376.94137    
      3300  -45007.622      239.10346     -44768.518      199.91941      199.98933      377.12687    
      3400  -45003.413      242.48765     -44760.925      199.91155      199.98344      377.31237    
      3500  -44995.274      236.44725     -44758.827      199.90898      199.98238      377.49787    
      3600  -45001.485      239.08039     -44762.404      199.90027      199.97488      377.68338    
      3700  -44996.581      230.89495     -44765.686      199.89759      199.97308      377.86888    
      3800  -44996.99       234.44284     -44762.547      199.88886      199.9648       378.05438    
      3900  -44991.852      238.03357     -44753.818      199.88628      199.96223      378.23988    
      4000  -44983.789      238.65985     -44745.129      199.87741      199.95355      378.42539    
      4100  -44977.808      235.6922      -44742.116      199.87398      199.9498       378.61089    
      4200  -44984.039      240.17115     -44743.868      199.86522      199.94111      378.79639    
      4300  -44978.951      232.53104     -44746.42       199.861        199.93704      378.98189    
      4400  -44977.305      233.10089     -44744.204      199.85184      199.92824      379.1674     
      4500  -44973.023      236.35634     -44736.666      199.8467       199.92381      379.3529     
      4600  -44965.094      238.15633     -44726.938      199.83673      199.91542      379.5384     
      4700  -44963.901      242.37102     -44721.53       199.83002      199.91079      379.72391    
      4800  -44963.308      241.28666     -44722.021      199.81926      199.90312      379.90941    
      4900  -44961.036      236.01903     -44725.017      199.81088      199.89813      380.09491    
      5000  -44955.876      231.76148     -44724.114      199.79908      199.89022      380.28041    
      5100  -44954.549      237.07269     -44717.476      199.78961      199.88528      380.46592    
      5200  -44947.866      240.25426     -44707.612      199.77772      199.8779       380.65142    
      5300  -44941.087      240.9289      -44700.159      199.76728      199.87219      380.83692    
      5400  -44936.587      237.64386     -44698.943      199.75489      199.8641       381.02242    
      5500  -44934.761      233.77242     -44700.988      199.74462      199.85834      381.20793    
      5600  -44934.014      234.08832     -44699.926      199.73132      199.84914      381.39343    
      5700  -44928.669      234.3122      -44694.356      199.72129      199.84306      381.57893    
      5800  -44925.364      240.3262      -44685.038      199.70777      199.8329       381.76443    
      5900  -44916.636      239.41518     -44677.22       199.69768      199.82561      381.94994    
      6000  -44912.202      239.09468     -44673.107      199.68412      199.81469      382.13544    
      6100  -44908.381      235.21842     -44673.163      199.67375      199.80615      382.32094    
      6200  -44909.518      236.82475     -44672.693      199.66022      199.79374      382.50644    
      6300  -44901.81       232.80103     -44669.009      199.6495       199.78363      382.69195    
      6400  -44898.655      237.86009     -44660.795      199.63639      199.77086      382.87745    
      6500  -44891.57       239.53934     -44652.031      199.62529      199.75975      383.06295    
      6600  -44884.257      237.58213     -44646.675      199.61144      199.74608      383.24846    
      6700  -44882.09       237.28068     -44644.81       199.59976      199.73447      383.43396    
      6800  -44880.847      236.61063     -44644.236      199.58526      199.72026      383.61946    
      6900  -44876.238      235.06321     -44641.174      199.5725       199.70803      383.80496    
      7000  -44868.369      235.07647     -44633.293      199.55732      199.69386      383.99047    
      7100  -44862.974      239.33719     -44623.637      199.54327      199.68134      384.17597    
      7200  -44858.225      241.35499     -44616.87       199.52703      199.66738      384.36147    
      7300  -44849.674      235.7945      -44613.879      199.51116      199.65443      384.54697    
      7400  -44847.949      235.11464     -44612.834      199.49356      199.64058      384.73248    
      7500  -44844.983      234.48878     -44610.495      199.47617      199.62729      384.91798    
      7600  -44841.983      237.5165      -44604.467      199.45727      199.61334      385.10348    
      7700  -44831.517      236.67095     -44594.847      199.43864      199.60007      385.28898    
      7800  -44826.64       241.02781     -44585.612      199.419        199.58602      385.47449    
      7900  -44821.605      240.79318     -44580.812      199.39876      199.57185      385.65999    
      8000  -44813.894      234.29467     -44579.6        199.37831      199.55748      385.84549    
      8100  -44813.278      236.19035     -44577.088      199.35697      199.54199      386.03099    
      8200  -44805.454      234.27629     -44571.178      199.3364       199.5267       386.2165     
      8300  -44796.551      235.29518     -44561.256      199.31452      199.50986      386.402      
      8400  -44791.839      239.85045     -44551.988      199.29381      199.49342      386.5875     
      8500  -44785.993      239.75919     -44546.234      199.27062      199.47392      386.77301    
      8600  -44783.598      238.09027     -44545.508      199.25058      199.45662      386.95851    
      8700  -44778.877      236.06227     -44542.815      199.22615      199.43435      387.14401    
      8800  -44771.678      236.43635     -44535.242      199.2061       199.41618      387.32951    
      8900  -44761.426      234.59284     -44526.833      199.18066      199.39231      387.51502    
      9000  -44755.422      236.44041     -44518.981      199.16004      199.37316      387.70052    
      9100  -44754.176      241.61943     -44512.556      199.13389      199.3479       387.88602    
      9200  -44739.922      232.9844      -44506.937      199.11203      199.32719      388.07152    
      9300  -44736.792      235.58977     -44501.202      199.08532      199.30155      388.25703    
      9400  -44731.875      236.20439     -44495.671      199.06177      199.27952      388.44253    
      9500  -44725.158      235.80126     -44489.357      199.03362      199.25329      388.62803    
      9600  -44720.192      238.60892     -44481.584      199.00816      199.23027      388.81353    
      9700  -44713.87       241.65787     -44472.212      198.97862      199.2041       388.99904    
      9800  -44705.275      240.18499     -44465.09       198.95108      199.18062      389.18454    
      9900  -44701.531      238.83899     -44462.692      198.91905      199.15373      389.37004    
     10000  -44692.854      232.85359     -44460.001      198.88952      199.12999      389.55555    
     10100  -44689.16       237.22652     -44451.933      198.85566      199.10311      389.74105    
     10200  -44678.026      236.02452     -44442.002      198.82403      199.07887      389.92655    
     10300  -44671.483      237.66184     -44433.821      198.78827      199.05098      390.11205    
     10400  -44666.649      239.82805     -44426.82       198.75492      199.02576      390.29756    
     10500  -44656.858      236.42622     -44420.432      198.71839      198.99732      390.48306    
     10600  -44653.822      237.75721     -44416.064      198.68291      198.97007      390.66856    
     10700  -44645.027      231.37105     -44413.656      198.64586      198.94081      390.85406    
     10800  -44638.152      232.30744     -44405.844      198.60852      198.91074      391.03957    
     10900  -44628.197      236.33251     -44391.864      198.57201      198.8809       391.22507    
     11000  -44621.566      238.40444     -44383.161      198.53319      198.84792      391.41057    
     11100  -44615.419      238.83876     -44376.58       198.49626      198.81646      391.59607    
     11200  -44608.074      236.07307     -44372.001      198.45644      198.7814       391.78158    
     11300  -44603.098      234.24611     -44368.852      198.41935      198.74828      391.96708    
     11400  -44594.92       232.7361      -44362.184      198.3789       198.71118      392.15258    
     11500  -44584.961      237.78154     -44347.179      198.3409       198.67616      392.33808    
     11600  -44578.488      241.94434     -44336.544      198.2997       198.63737      392.52359    
     11700  -44567.489      238.29628     -44329.193      198.26115      198.60112      392.70909    
     11800  -44559.521      234.72459     -44324.797      198.21832      198.56067      392.89459    
     11900  -44552.04       231.22865     -44320.812      198.17811      198.52302      393.0801     
     12000  -44547.681      235.44403     -44312.237      198.13377      198.48177      393.2656     
     12100  -44535.739      239.3195      -44296.42       198.09207      198.44338      393.4511     
     12200  -44525.592      237.71656     -44287.875      198.04595      198.40166      393.6366     
     12300  -44523.627      239.99816     -44283.629      198.00153      198.36243      393.82211    
     12400  -44516.107      237.46764     -44278.64       197.95326      198.32058      394.00761    
     12500  -44502.964      232.71024     -44270.254      197.90668      198.28121      394.19311    
     12600  -44499.769      242.84999     -44256.919      197.85683      198.23927      394.37861    
     12700  -44483.865      240.12616     -44243.739      197.80776      198.19904      394.56412    
     12800  -44480.648      242.46894     -44238.179      197.75667      198.15728      394.74962    
     12900  -44470.561      236.65098     -44233.91       197.70522      198.11533      394.93512    
     13000  -44464.245      237.14241     -44227.103      197.65393      198.07379      395.12062    
     13100  -44452.99       234.12245     -44218.868      197.60057      198.03015      395.30613    
     13200  -44445.881      238.13294     -44207.748      197.54882      197.98781      395.49163    
     13300  -44433.619      240.28296     -44193.336      197.49515      197.9429       395.67713    
     13400  -44423.939      238.01065     -44185.928      197.44341      197.89942      395.86263    
     13500  -44418.171      235.48564     -44182.686      197.3894       197.8525       396.04814    
     13600  -44412.239      236.42701     -44175.812      197.33792      197.80786      396.23364    
     13700  -44401.229      235.33567     -44165.893      197.28346      197.7591       396.41914    
     13800  -44391.92       237.62721     -44154.292      197.23275      197.71382      396.60465    
     13900  -44382.839      243.00083     -44139.838      197.17766      197.66386      396.79015    
     14000  -44371.649      241.78802     -44129.861      197.12695      197.61767      396.97565    
     14100  -44368.605      239.61003     -44128.995      197.07106      197.56654      397.16115    
     14200  -44361.725      240.01314     -44121.712      197.0204       197.52026      397.34666    
     14300  -44349.773      237.95601     -44111.817      196.96415      197.46836      397.53216    
     14400  -44338.271      237.00822     -44101.263      196.91334      197.422        397.71766    
     14500  -44329.098      239.96551     -44089.132      196.85675      197.37014      397.90316    
     14600  -44315.878      237.89197     -44077.986      196.80553      197.32369      398.08867    
     14700  -44312.013      240.26849     -44071.745      196.74917      197.27273      398.27417    
     14800  -44301.453      233.57044     -44067.882      196.69679      197.22617      398.45967    
     14900  -44295.746      237.52661     -44058.22       196.64021      197.17609      398.64517    
     15000  -44279.896      234.94869     -44044.948      196.58776      197.13032      398.83068    
     15100  -44269.421      237.70317     -44031.718      196.53117      197.08125      399.01618    
     15200  -44259.043      236.06227     -44022.98       196.47809      197.03597      399.20168    
     15300  -44251.949      237.13652     -44014.813      196.42138      196.98778      399.38718    
     15400  -44243.577      236.89491     -44006.683      196.36791      196.94308      399.57269    
     15500  -44235.385      236.79213     -43998.593      196.31232      196.89651      399.75819    
     15600  -44227.268      234.22858     -43993.039      196.25858      196.85157      399.94369    
     15700  -44220.327      235.37002     -43984.957      196.20409      196.80556      400.1292     
     15800  -44203.788      234.59037     -43969.198      196.15102      196.76089      400.3147     
     15900  -44192.998      237.29169     -43955.706      196.0981       196.71573      400.5002     
     16000  -44184.215      239.03519     -43945.18       196.04575      196.67084      400.6857     
     16100  -44172.728      236.32744     -43936.401      195.99384      196.62566      400.87121    
     16200  -44165.422      235.96236     -43929.459      195.94302      196.58062      401.05671    
     16300  -44158.012      235.65294     -43922.359      195.89263      196.53567      401.24221    
     16400  -44145.502      235.39724     -43910.105      195.84292      196.49058      401.42771    
     16500  -44132.57       238.86046     -43893.71       195.79452      196.44635      401.61322    
     16600  -44121.428      239.03775     -43882.39       195.74559      196.40119      401.79872    
     16700  -44110.839      236.45692     -43874.382      195.69898      196.35825      401.98422    
     16800  -44103.352      235.04544     -43868.306      195.65096      196.31345      402.16972    
     16900  -44093.219      231.22783     -43861.991      195.60562      196.27152      402.35523    
     17000  -44087.542      234.10454     -43853.437      195.55843      196.22757      402.54073    
     17100  -44070.075      233.55689     -43836.518      195.51447      196.18684      402.72623    
     17200  -44060.422      239.09168     -43821.331      195.4682       196.14412      402.91174    
     17300  -44046.757      238.31503     -43808.442      195.42464      196.10401      403.09724    
     17400  -44035.9        238.2083      -43797.691      195.37946      196.06281      403.28274    
     17500  -44028.935      237.89139     -43791.044      195.33586      196.02372      403.46824    
     17600  -44021.318      236.92375     -43784.394      195.29159      195.98464      403.65375    
     17700  -44010.85       238.52177     -43772.328      195.24798      195.94685      403.83925    
     17800  -43990.32       234.26954     -43756.051      195.20438      195.90957      404.02475    
     17900  -43984.658      240.16015     -43744.498      195.16188      195.87349      404.21025    
     18000  -43971.404      236.79817     -43734.606      195.11864      195.8372       404.39576    
     18100  -43958.719      233.14901     -43725.57       195.07689      195.80265      404.58126    
     18200  -43954.522      238.03286     -43716.489      195.03483      195.76775      404.76676    
     18300  -43941.445      235.16376     -43706.281      194.99432      195.7339       404.95226    
     18400  -43928.137      236.63355     -43691.503      194.9539       195.69969      405.13777    
     18500  -43914.694      238.61193     -43676.082      194.91453      195.6659       405.32327    
     18600  -43902.454      237.82347     -43664.63       194.87612      195.63209      405.50877    
     18700  -43895.557      236.78396     -43658.773      194.8391       195.59884      405.69427    
     18800  -43884.06       233.34366     -43650.716      194.80184      195.56517      405.87978    
     18900  -43871.992      234.83881     -43637.153      194.76635      195.53237      406.06528    
     19000  -43858.965      236.88        -43622.085      194.73083      195.49922      406.25078    
     19100  -43848.419      239.87861     -43608.54       194.69682      195.46709      406.43629    
     19200  -43838.156      240.60588     -43597.55       194.6628       195.43473      406.62179    
     19300  -43828.176      236.84981     -43591.326      194.62905      195.40236      406.80729    
     19400  -43817.153      233.65206     -43583.501      194.59627      195.37084      406.99279    
     19500  -43804.593      236.68896     -43567.904      194.56357      195.33908      407.1783     
     19600  -43791.532      238.46992     -43553.062      194.53247      195.30908      407.3638     
     19700  -43776.674      236.41243     -43540.261      194.49914      195.2774       407.5493     
     19800  -43766.702      238.58361     -43528.118      194.46849      195.24853      407.7348     
     19900  -43756.639      240.32163     -43516.317      194.43555      195.21831      407.92031    
     20000  -43744.824      239.03596     -43505.788      194.40578      195.19156      408.10581    
     20100  -43733.147      237.30272     -43495.845      194.37211      195.16174      408.29131    
     20200  -43717.408      233.33879     -43484.07       194.34274      195.13646      408.47681    
     20300  -43703.221      235.7822      -43467.439      194.30901      195.10759      408.66232    
     20400  -43690.172      237.84921     -43452.323      194.28058      195.08386      408.84782    
     20500  -43679.663      238.22233     -43441.441      194.2475       195.05576      409.03332    
     20600  -43669.309      235.32473     -43433.984      194.21808      195.03194      409.21882    
     20700  -43658.92       234.70078     -43424.219      194.18596      195.00504      409.40433    
     20800  -43646.73       235.60978     -43411.12       194.15707      194.98173      409.58983    
     20900  -43633.392      237.14807     -43396.244      194.12573      194.95543      409.77533    
     21000  -43620.106      239.11337     -43380.993      194.09745      194.932        409.96084    
     21100  -43607.926      240.74013     -43367.185      194.06655      194.90569      410.14634    
     21200  -43593.764      237.51364     -43356.25       194.03939      194.88228      410.33184    
     21300  -43583.878      234.34467     -43349.533      194.01         194.85638      410.51734    
     21400  -43577.417      238.73511     -43338.682      193.98249      194.83166      410.70285    
     21500  -43558.715      236.60603     -43322.109      193.95547      194.80673      410.88835    
     21600  -43546.992      240.90267     -43306.089      193.92814      194.78115      411.07385    
     21700  -43532.211      237.84584     -43294.366      193.90305      194.75705      411.25935    
     21800  -43523.084      239.17288     -43283.911      193.87568      194.73018      411.44486    
     21900  -43508.879      234.10105     -43274.778      193.85221      194.70692      411.63036    
     22000  -43501.544      234.82619     -43266.718      193.82518      194.67967      411.81586    
     22100  -43485.898      231.29331     -43254.604      193.80263      194.65684      412.00136    
     22200  -43468.798      233.93861     -43234.859      193.77598      194.62959      412.18687    
     22300  -43458.13       238.93806     -43219.192      193.75408      194.60728      412.37237    
     22400  -43443.27       239.67765     -43203.592      193.72703      194.57997      412.55787    
     22500  -43426.922      236.83259     -43190.089      193.70557      194.55845      412.74338    
     22600  -43418.534      238.2391      -43180.295      193.67824      194.53182      412.92888    
     22700  -43403.99       231.31197     -43172.678      193.65571      194.51039      413.11438    
     22800  -43393.011      234.38396     -43158.627      193.62835      194.4848       413.29988    
     22900  -43379.415      238.01285     -43141.402      193.60551      194.4647       413.48539    
     23000  -43367.025      239.69664     -43127.328      193.57786      194.44036      413.67089    
     23100  -43350.737      236.50925     -43114.227      193.55358      194.42012      413.85639    
     23200  -43340.88       240.07171     -43100.809      193.52647      194.39768      414.04189    
     23300  -43323.554      237.30316     -43086.251      193.50137      194.37737      414.2274     
     23400  -43306.051      235.43173     -43070.619      193.47481      194.3558       414.4129     
     23500  -43293.944      235.99508     -43057.949      193.44875      194.33456      414.5984     
     23600  -43282.256      232.35072     -43049.905      193.42305      194.31369      414.7839     
     23700  -43274.746      235.92982     -43038.816      193.39681      194.29175      414.96941    
     23800  -43261.962      238.6458      -43023.317      193.37218      194.27129      415.15491    
     23900  -43243.369      238.48396     -43004.885      193.34562      194.24848      415.34041    
     24000  -43230.095      239.26035     -42990.835      193.32213      194.22811      415.52591    
     24100  -43217.228      238.09764     -42979.131      193.29568      194.20423      415.71142    
     24200  -43202.745      234.31528     -42968.429      193.27358      194.1837       415.89692    
     24300  -43190.312      233.90143     -42956.41       193.24728      194.15837      416.08242    
     24400  -43176.653      235.88897     -42940.764      193.22611      194.13765      416.26793    
     24500  -43160.169      238.70069     -42921.468      193.20031      194.11147      416.45343    
     24600  -43146.653      238.66428     -42907.989      193.1798       194.09042      416.63893    
     24700  -43134.378      235.57047     -42898.808      193.15397      194.06377      416.82443    
     24800  -43122.719      234.83512     -42887.884      193.13326      194.04201      417.00994    
     24900  -43107.511      234.03609     -42873.475      193.1085       194.01625      417.19544    
     25000  -43095.417      237.32734     -42858.089      193.08681      193.99396      417.38094    
     25100  -43083.092      241.08948     -42842.002      193.06272      193.96946      417.56644    
     25200  -43061.989      236.12039     -42825.868      193.04001      193.94689      417.75195    
     25300  -43046.437      240.41433     -42806.022      193.01622      193.9236       417.93745    
     25400  -43031.61       239.05227     -42792.558      192.99226      193.90108      418.12295    
     25500  -43022.95       238.39396     -42784.556      192.96809      193.87892      418.30845    
     25600  -43008.567      235.45329     -42773.114      192.94269      193.85617      418.49396    
     25700  -42998.727      238.9297      -42759.797      192.91853      193.83533      418.67946    
     25800  -42980.901      236.56155     -42744.339      192.89235      193.81282      418.86496    
     25900  -42965.403      239.50318     -42725.9        192.86769      193.79229      419.05046    
     26000  -42947.11       237.95839     -42709.152      192.84101      193.76989      419.23597    
     26100  -42939.043      239.85385     -42699.189      192.81627      193.74964      419.42147    
     26200  -42924.721      234.66335     -42690.057      192.78918      193.72704      419.60697    
     26300  -42914.223      238.62761     -42675.595      192.76486      193.70695      419.79248    
     26400  -42893.051      234.75916     -42658.292      192.73761      193.68356      419.97798    
     26500  -42878.478      238.00231     -42640.476      192.71426      193.66351      420.16348    
     26600  -42863.456      238.1519      -42625.304      192.68705      193.63941      420.34898    
     26700  -42851.482      233.58071     -42617.901      192.66331      193.61808      420.53449    
     26800  -42839.164      232.60038     -42606.564      192.63748      193.59414      420.71999    
     26900  -42827.175      238.13046     -42589.045      192.61381      193.5718       420.90549    
     27000  -42811.665      241.50918     -42570.156      192.58885      193.5479       421.09099    
     27100  -42790.51       235.78341     -42554.726      192.56465      193.52412      421.2765     
     27200  -42782.793      241.66995     -42541.123      192.54063      193.5001       421.462      
     27300  -42766.83       237.40754     -42529.423      192.51595      193.4748       421.6475     
     27400  -42750.443      230.42913     -42520.014      192.49315      193.45125      421.833      
     27500  -42738.389      234.90764     -42503.481      192.4679       193.42488      422.01851    
     27600  -42719.77       236.60467     -42483.165      192.44491      193.4012       422.20401    
     27700  -42704.618      237.64041     -42466.978      192.41942      193.37473      422.38951    
     27800  -42690.07       237.0247      -42453.046      192.39649      193.35134      422.57502    
     27900  -42678.678      237.9814      -42440.697      192.37052      193.32528      422.76052    
     28000  -42668.041      237.16681     -42430.875      192.3466       193.30199      422.94602    
     28100  -42649.838      233.92456     -42415.914      192.31986      193.27681      423.13152    
     28200  -42633.138      239.03138     -42394.106      192.29554      193.2544       423.31703    
     28300  -42616.61       238.77851     -42377.831      192.26857      193.23021      423.50253    
     28400  -42599.935      236.99405     -42362.941      192.24275      193.20759      423.68803    
     28500  -42585.227      235.91289     -42349.314      192.21534      193.18392      423.87353    
     28600  -42571.794      235.22288     -42336.571      192.18873      193.16092      424.05904    
     28700  -42557.636      235.29799     -42322.338      192.16198      193.13834      424.24454    
     28800  -42539.881      235.87362     -42304.007      192.13437      193.11478      424.43004    
     28900  -42522.486      238.14051     -42284.345      192.10756      193.09209      424.61554    
     29000  -42507.517      238.52282     -42268.995      192.07979      193.06783      424.80105    
     29100  -42496.735      239.28311     -42257.452      192.05394      193.04552      424.98655    
     29200  -42486.654      238.6599      -42247.994      192.02613      193.02045      425.17205    
     29300  -42463.996      231.85106     -42232.145      192.00055      192.99734      425.35755    
     29400  -42447.756      234.14985     -42213.607      191.97331      192.97203      425.54306    
     29500  -42433.323      238.25281     -42195.07       191.9478       192.94807      425.72856    
     29600  -42418.469      240.37025     -42178.099      191.92125      192.92245      425.91406    
     29700  -42404.716      239.53172     -42165.184      191.89576      192.89751      426.09957    
     29800  -42389.426      232.46588     -42156.96       191.86937      192.87141      426.28507    
     29900  -42374.279      233.41674     -42140.862      191.84401      192.84599      426.47057    
     30000  -42360.369      238.9056      -42121.463      191.81823      192.81992      426.65607    
     30100  -42338.659      234.88781     -42103.772      191.79233      192.79367      426.84158    
     30200  -42322.305      235.02052     -42087.285      191.76711      192.76765      427.02708    
     30300  -42310.868      239.96836     -42070.9        191.74084      192.74071      427.21258    
     30400  -42293.875      240.76276     -42053.112      191.71594      192.71518      427.39808    
     30500  -42274.392      239.77706     -42034.615      191.68842      192.68725      427.58359    
     30600  -42264.121      243.15387     -42020.967      191.66305      192.66186      427.76909    
     30700  -42250.722      239.06571     -42011.656      191.63595      192.63505      427.95459    
     30800  -42234.631      236.82918     -41997.802      191.60881      192.60903      428.14009    
     30900  -42215.739      234.83049     -41980.908      191.5816       192.58314      428.3256     
     31000  -42199.918      239.15549     -41960.762      191.55388      192.55752      428.5111     
     31100  -42179.734      238.2971      -41941.437      191.52648      192.53223      428.6966     
     31200  -42165.974      238.20295     -41927.771      191.49796      192.50661      428.8821     
     31300  -42153.14       239.21082     -41913.929      191.47014      192.4816       429.06761    
     31400  -42137.168      237.59696     -41899.571      191.44136      192.45561      429.25311    
     31500  -42117.813      232.8173      -41884.996      191.41401      192.43124      429.43861    
     31600  -42105.159      235.21878     -41869.941      191.38455      192.40499      429.62412    
     31700  -42090.824      238.71491     -41852.109      191.35697      192.38053      429.80962    
     31800  -42071.225      239.51334     -41831.712      191.32787      192.35429      429.99512    
     31900  -42053.873      239.06761     -41814.805      191.29998      192.3294       430.18062    
     32000  -42042.594      238.32225     -41804.272      191.27156      192.30401      430.36613    
     32100  -42029.375      236.77228     -41792.603      191.24251      192.27805      430.55163    
     32200  -42013.146      238.16407     -41774.981      191.21423      192.25229      430.73713    
     32300  -41992.46       237.16695     -41755.294      191.18552      192.22626      430.92263    
     32400  -41975.173      237.57279     -41737.601      191.15804      192.20057      431.10814    
     32500  -41961.316      239.23007     -41722.086      191.12894      192.17336      431.29364    
     32600  -41948.84       237.65613     -41711.184      191.10217      192.14735      431.47914    
     32700  -41930.516      231.6041      -41698.912      191.07314      192.11915      431.66464    
     32800  -41914.149      235.4906      -41678.659      191.04718      192.09319      431.85015    
     32900  -41894.163      235.25637     -41658.907      191.01892      192.06481      432.03565    
     33000  -41876.856      235.58368     -41641.272      190.99227      192.03737      432.22115    
     33100  -41863.614      239.16678     -41624.448      190.96523      192.00943      432.40666    
     33200  -41845.073      236.64555     -41608.427      190.938        191.98114      432.59216    
     33300  -41830.476      236.69288     -41593.783      190.91182      191.95373      432.77766    
     33400  -41812.437      233.05145     -41579.385      190.88345      191.92446      432.96316    
     33500  -41801.331      238.79644     -41562.534      190.85667      191.89707      433.14867    
     33600  -41782.77       240.75887     -41542.011      190.82832      191.86877      433.33417    
     33700  -41760.084      237.0533      -41523.031      190.80082      191.84131      433.51967    
     33800  -41746.628      237.60501     -41509.023      190.77169      191.8129       433.70517    
     33900  -41738.018      237.998       -41500.02       190.74359      191.78633      433.89068    
     34000  -41721.758      238.82801     -41482.93       190.71347      191.7583       434.07618    
     34100  -41700.888      238.39882     -41462.489      190.6857       191.73327      434.26168    
     34200  -41685.174      241.68961     -41443.484      190.65494      191.70572      434.44718    
     34300  -41661.597      234.44968     -41427.147      190.6262       191.68053      434.63269    
     34400  -41652.072      239.10041     -41412.972      190.59525      191.65353      434.81819    
     34500  -41637.64       234.74019     -41402.9        190.56643      191.62831      435.00369    
     34600  -41617.444      231.13934     -41386.305      190.53633      191.60194      435.18919    
     34700  -41600.713      236.42619     -41364.287      190.50644      191.57573      435.3747     
     34800  -41584.04       238.66276     -41345.377      190.47697      191.54985      435.5602     
     34900  -41566.101      237.92368     -41328.177      190.44686      191.52303      435.7457     
     35000  -41549.413      237.80036     -41311.613      190.41848      191.4974       435.93121    
     35100  -41533.573      236.06039     -41297.512      190.38823      191.46951      436.11671    
     35200  -41517.434      233.10116     -41284.333      190.36024      191.44345      436.30221    
     35300  -41504.154      237.60084     -41266.553      190.33094      191.41536      436.48771    
     35400  -41478.887      235.14734     -41243.739      190.30324      191.38826      436.67322    
     35500  -41464.89       238.99286     -41225.897      190.27499      191.36007      436.85872    
     35600  -41448.473      237.79883     -41210.675      190.2477       191.33193      437.04422    
     35700  -41431.502      233.88658     -41197.615      190.22001      191.30362      437.22972    
     35800  -41419.503      233.31373     -41186.189      190.19255      191.27496      437.41523    
     35900  -41403.507      233.8881      -41169.619      190.16559      191.24678      437.60073    
     36000  -41383.254      238.46667     -41144.788      190.13842      191.21842      437.78623    
     36100  -41362.677      236.68868     -41125.989      190.11186      191.19057      437.97173    
     36200  -41347.327      239.02445     -41108.302      190.08337      191.16133      438.15724    
     36300  -41328.453      237.17725     -41091.276      190.05732      191.1342       438.34274    
     36400  -41315.735      240.09544     -41075.639      190.028        191.10437      438.52824    
     36500  -41296.396      235.02751     -41061.369      190.00178      191.07803      438.71374    
     36600  -41281.501      234.61706     -41046.884      189.97224      191.04878      438.89925    
     36700  -41264.756      235.47321     -41029.283      189.94453      191.02205      439.08475    
     36800  -41242.233      235.81356     -41006.419      189.9154       190.99426      439.27025    
     36900  -41228.523      240.45444     -40988.069      189.88671      190.96763      439.45576    
     37000  -41211.15       237.95518     -40973.195      189.85791      190.9414       439.64126    
     37100  -41196.125      235.03457     -40961.09       189.82801      190.91479      439.82676    
     37200  -41179.724      233.57913     -40946.145      189.79888      190.88926      440.01226    
     37300  -41157.92       236.18458     -40921.736      189.76881      190.8631       440.19777    
     37400  -41146.283      244.38787     -40901.895      189.73993      190.838        440.38327    
     37500  -41125.211      238.29971     -40886.911      189.71002      190.81198      440.56877    
     37600  -41109.021      234.9696      -40874.051      189.68054      190.78611      440.75427    
     37700  -41096.542      238.06211     -40858.48       189.65153      190.76041      440.93978    
     37800  -41075.687      238.14567     -40837.541      189.62226      190.73395      441.12528    
     37900  -41052.044      236.94559     -40815.098      189.59431      190.70856      441.31078    
     38000  -41037.636      238.39        -40799.246      189.56518      190.68117      441.49628    
     38100  -41025.028      239.2586      -40785.769      189.53827      190.65567      441.68179    
     38200  -41005.623      234.79756     -40770.826      189.50944      190.62768      441.86729    
     38300  -40986.339      234.35193     -40751.987      189.48315      190.60152      442.05279    
     38400  -40965.551      239.02408     -40726.527      189.45585      190.57396      442.23829    
     38500  -40952.098      241.54201     -40710.556      189.42907      190.54653      442.4238     
     38600  -40937.918      239.60448     -40698.314      189.40269      190.51905      442.6093     
     38700  -40918.824      234.38336     -40684.44       189.3759       190.49081      442.7948     
     38800  -40906.287      239.11771     -40667.169      189.35094      190.46412      442.98031    
     38900  -40880.866      235.41837     -40645.448      189.32406      190.43517      443.16581    
     39000  -40864.075      240.41472     -40623.661      189.29879      190.40864      443.35131    
     39100  -40845.866      238.55201     -40607.314      189.27189      190.38036      443.53681    
     39200  -40829.277      236.8805      -40592.396      189.24687      190.35432      443.72232    
     39300  -40813.683      236.61016     -40577.073      189.21982      190.32641      443.90782    
     39400  -40791.74       231.39926     -40560.341      189.19344      190.30024      444.09332    
     39500  -40780.085      238.08748     -40541.998      189.16617      190.27321      444.27882    
     39600  -40760.645      240.71579     -40519.93       189.13931      190.24714      444.46433    
     39700  -40741.171      243.66291     -40497.508      189.11273      190.22134      444.64983    
     39800  -40725.144      240.59414     -40484.55       189.08465      190.19509      444.83533    
     39900  -40709.578      237.85326     -40471.724      189.05792      190.17043      445.02083    
     40000  -40692.578      236.77807     -40455.8        189.02892      190.14438      445.20634    
     40100  -40675.916      236.80695     -40439.109      189.00271      190.12098      445.39184    
     40200  -40658.758      238.57519     -40420.183      188.97344      190.09512      445.57734    
     40300  -40632.817      234.4355      -40398.381      188.94674      190.07137      445.76285    
     40400  -40620.212      241.15135     -40379.061      188.91862      190.04657      445.94835    
     40500  -40603.826      238.01653     -40365.81       188.89053      190.02191      446.13385    
     40600  -40589.804      236.44905     -40353.354      188.86408      189.99876      446.31935    
     40700  -40567.876      232.9649      -40334.911      188.83536      189.97303      446.50486    
     40800  -40551.513      237.11315     -40314.4        188.80934      189.94998      446.69036    
     40900  -40532.555      238.49859     -40294.056      188.78162      189.92479      446.87586    
     41000  -40516.392      239.82737     -40276.565      188.75607      189.90128      447.06136    
     41100  -40496.115      232.9827      -40263.132      188.72919      189.87551      447.24687    
     41200  -40483.81       232.78083     -40251.029      188.70428      189.85141      447.43237    
     41300  -40464.807      234.67484     -40230.132      188.67821      189.82534      447.61787    
     41400  -40449.198      241.11424     -40208.084      188.65403      189.80093      447.80337    
     41500  -40426.12       237.30812     -40188.812      188.62867      189.77455      447.98888    
     41600  -40409.572      237.93646     -40171.636      188.60473      189.74929      448.17438    
     41700  -40394.495      236.19681     -40158.298      188.58067      189.72367      448.35988    
     41800  -40377.235      232.06746     -40145.168      188.55612      189.69714      448.54538    
     41900  -40360.257      235.87602     -40124.381      188.53352      189.67261      448.73089    
     42000  -40340.367      237.16708     -40103.2        188.50844      189.64554      448.91639    
     42100  -40316.567      232.99097     -40083.576      188.48671      189.62182      449.10189    
     42200  -40297.204      233.73729     -40063.466      188.46138      189.59473      449.2874     
     42300  -40280.439      237.02471     -40043.414      188.43859      189.57047      449.4729     
     42400  -40264.002      240.12116     -40023.881      188.41453      189.54513      449.6584     
     42500  -40247.382      237.52204     -40009.86       188.38982      189.51996      449.8439     
     42600  -40231.141      234.18702     -39996.954      188.36635      189.49624      450.02941    
     42700  -40215.121      235.23922     -39979.882      188.34093      189.47122      450.21491    
     42800  -40196.979      237.21058     -39959.769      188.31729      189.44878      450.40041    
     42900  -40174.7        238.80045     -39935.9        188.29008      189.42367      450.58591    
     43000  -40160.699      242.85712     -39917.842      188.26683      189.40301      450.77142    
     43100  -40141.123      238.11266     -39903.01       188.23972      189.37884      450.95692    
     43200  -40127.173      239.86648     -39887.307      188.21549      189.35787      451.14242    
     43300  -40110.885      240.05913     -39870.825      188.18897      189.33526      451.32792    
     43400  -40091.291      238.88157     -39852.41       188.16327      189.31309      451.51343    
     43500  -40070.783      242.30195     -39828.481      188.13882      189.2925       451.69893    
     43600  -40050.661      241.77956     -39808.881      188.11262      189.26955      451.88443    
     43700  -40032.847      236.94927     -39795.897      188.08841      189.24874      452.06993    
     43800  -40015.979      235.09912     -39780.88       188.06256      189.22581      452.25544    
     43900  -39997.65       234.93599     -39762.714      188.03894      189.20493      452.44094    
     44000  -39981.344      238.72321     -39742.62       188.01432      189.1821       452.62644    
     44100  -39959.123      238.886       -39720.237      187.99139      189.16053      452.81195    
     44200  -39941.13       242.31482     -39698.815      187.96709      189.1371       452.99745    
     44300  -39924.378      237.99304     -39686.385      187.94423      189.11452      453.18295    
     44400  -39908.257      235.594       -39672.663      187.92175      189.09133      453.36845    
     44500  -39894.294      238.48551     -39655.808      187.89941      189.06782      453.55396    
     44600  -39874.586      237.5148      -39637.071      187.87815      189.04469      453.73946    
     44700  -39854.425      239.23706     -39615.188      187.85532      189.01993      453.92496    
     44800  -39834.177      240.70599     -39593.471      187.8353       188.99814      454.11046    
     44900  -39816.378      238.96775     -39577.411      187.81292      188.97357      454.29597    
     45000  -39799.206      233.10953     -39566.096      187.79243      188.95106      454.48147    
     45100  -39784.987      237.45611     -39547.531      187.77096      188.92704      454.66697    
     45200  -39765.234      239.26188     -39525.972      187.7496       188.90382      454.85247    
     45300  -39743.72       239.1211      -39504.599      187.72873      188.88147      455.03798    
     45400  -39728.682      240.02412     -39488.658      187.70675      188.85841      455.22348    
     45500  -39713.401      235.93375     -39477.467      187.68484      188.83562      455.40898    
     45600  -39695.713      237.35362     -39458.36       187.66277      188.81307      455.59449    
     45700  -39675.066      238.68907     -39436.377      187.64104      188.79158      455.77999    
     45800  -39653.246      237.69713     -39415.548      187.6179       188.7697       455.96549    
     45900  -39637.064      239.49495     -39397.569      187.59559      188.7489       456.15099    
     46000  -39622.459      235.94756     -39386.511      187.5727       188.72832      456.3365     
     46100  -39603.804      234.80812     -39368.996      187.5493       188.70688      456.522      
     46200  -39580.746      234.24784     -39346.498      187.52673      188.68743      456.7075     
     46300  -39565.184      240.06692     -39325.117      187.5033       188.6667       456.893      
     46400  -39545.374      237.98896     -39307.385      187.48079      188.64697      457.07851    
     46500  -39528.409      237.01155     -39291.398      187.45749      188.62628      457.26401    
     46600  -39512.63       234.85493     -39277.775      187.43553      188.6068       457.44951    
     46700  -39497.263      232.37865     -39264.884      187.41249      188.58647      457.63501    
     46800  -39479.038      236.01234     -39243.026      187.39026      188.56675      457.82052    
     46900  -39457.041      236.18066     -39220.86       187.3682       188.54691      458.00602    
     47000  -39439.776      240.74016     -39199.036      187.34566      188.52619      458.19152    
     47100  -39419.376      240.90896     -39178.467      187.32451      188.50675      458.37702    
     47200  -39404.023      242.55185     -39161.472      187.30195      188.48553      458.56253    
     47300  -39383.364      234.01312     -39149.351      187.28123      188.46548      458.74803    
     47400  -39366.515      235.42055     -39131.094      187.26046      188.44454      458.93353    
     47500  -39345.901      236.31088     -39109.59       187.23954      188.42302      459.11904    
     47600  -39325.605      236.51014     -39089.095      187.22036      188.40242      459.30454    
     47700  -39307.417      236.79727     -39070.62       187.1994       188.38012      459.49004    
     47800  -39290.291      237.85876     -39052.432      187.18098      188.35977      459.67554    
     47900  -39269.016      234.95422     -39034.062      187.16046      188.33744      459.86105    
     48000  -39255.108      237.45705     -39017.651      187.14215      188.31695      460.04655    
     48100  -39237.284      234.2224      -39003.062      187.1226       188.29498      460.23205    
     48200  -39219.337      235.53317     -38983.804      187.10284      188.27296      460.41755    
     48300  -39198.217      238.47918     -38959.738      187.08437      188.25223      460.60306    
     48400  -39177.752      238.38772     -38939.364      187.06379      188.22981      460.78856    
     48500  -39160.854      238.11222     -38922.742      187.04526      188.2098       460.97406    
     48600  -39147.042      239.99472     -38907.047      187.02485      188.18818      461.15956    
     48700  -39128.872      239.95122     -38888.921      187.00453      188.16714      461.34507    
     48800  -39106.941      236.97667     -38869.964      186.98504      188.14764      461.53057    
     48900  -39088.569      237.94841     -38850.62       186.96373      188.12676      461.71607    
     49000  -39070.729      239.91191     -38830.817      186.94414      188.10818      461.90157    
     49100  -39047.995      238.12162     -38809.873      186.92231      188.08705      462.08708    
     49200  -39029.474      237.18287     -38792.291      186.90258      188.06932      462.27258    
     49300  -39015.606      237.07176     -38778.534      186.88071      188.04971      462.45808    
     49400  -38993.976      232.02535     -38761.951      186.86015      188.03187      462.64359    
     49500  -38980.033      238.23657     -38741.797      186.83832      188.01298      462.82909    
     49600  -38958.701      240.16013     -38718.541      186.81704      187.99463      463.01459    
     49700  -38937.914      244.22685     -38693.687      186.79589      187.97671      463.20009    
     49800  -38917.803      239.61723     -38678.185      186.7741       187.95781      463.3856     
     49900  -38901.743      239.05699     -38662.686      186.75439      187.94106      463.5711     
     50000  -38885.36       237.8626      -38647.497      186.73159      187.92094      463.7566     
     50100  -38867.788      236.14207     -38631.646      186.71217      187.90344      463.9421     
     50200  -38849.227      235.97527     -38613.252      186.69102      187.88398      464.12761    
     50300  -38829.253      237.63433     -38591.619      186.67058      187.86506      464.31311    
     50400  -38807.468      239.10718     -38568.361      186.65137      187.84678      464.49861    
     50500  -38791.025      240.23689     -38550.788      186.6304       187.82628      464.68411    
     50600  -38777.384      238.8716      -38538.512      186.61256      187.80817      464.86962    
     50700  -38756.641      236.35158     -38520.289      186.59214      187.78719      465.05512    
     50800  -38737.644      237.3829      -38500.261      186.57502      187.76891      465.24062    
     50900  -38717.63       238.97059     -38478.659      186.55494      187.74777      465.42613    
     51000  -38695.444      239.51869     -38455.926      186.5383       187.72916      465.61163    
     51100  -38678.002      240.40047     -38437.601      186.51845      187.70735      465.79713    
     51200  -38662.393      237.45785     -38424.935      186.50102      187.68794      465.98263    
     51300  -38644.812      237.11407     -38407.698      186.48258      187.66773      466.16814    
     51400  -38626.115      238.0241      -38388.091      186.46336      187.64663      466.35364    
     51500  -38606.871      239.65344     -38367.218      186.44564      187.62746      466.53914    
     51600  -38589.218      243.05652     -38346.161      186.42619      187.60642      466.72464    
     51700  -38567.971      239.47295     -38328.498      186.4082       187.5872       466.91015    
     51800  -38551.18       236.28531     -38314.895      186.38883      187.56694      467.09565    
     51900  -38531.025      233.79585     -38297.229      186.37024      187.54742      467.28115    
     52000  -38512.859      236.12653     -38276.732      186.35145      187.52832      467.46665    
     52100  -38492.117      239.89551     -38252.221      186.3322       187.50861      467.65216    
     52200  -38470.798      240.98708     -38229.811      186.31306      187.48976      467.83766    
     52300  -38455.698      240.69215     -38215.006      186.29333      187.47035      468.02316    
     52400  -38438.588      239.94219     -38198.646      186.27423      187.45229      468.20866    
     52500  -38420.11       237.70163     -38182.408      186.25455      187.43379      468.39417    
     52600  -38402.99       236.77252     -38166.218      186.2354       187.41618      468.57967    
     52700  -38382.514      235.06745     -38147.446      186.21422      187.39719      468.76517    
     52800  -38365.755      242.90366     -38122.851      186.19518      187.38045      468.95068    
     52900  -38342.209      242.71361     -38099.496      186.17445      187.36202      469.13618    
     53000  -38324.907      241.05381     -38083.853      186.15418      187.34414      469.32168    
     53100  -38307.315      239.73096     -38067.584      186.13456      187.32639      469.50718    
     53200  -38286.659      236.56245     -38050.096      186.11442      187.30831      469.69269    
     53300  -38270.846      237.91296     -38032.933      186.09463      187.29065      469.87819    
     53400  -38251.625      235.19823     -38016.427      186.07479      187.27261      470.06369    
     53500  -38236.838      235.14131     -38001.697      186.05535      187.25471      470.24919    
     53600  -38217.688      233.92001     -37983.768      186.0364       187.23649      470.4347     
     53700  -38196.954      240.65825     -37956.295      186.01674      187.21764      470.6202     
     53800  -38173.16       238.80754     -37934.352      185.99873      187.20011      470.8057     
     53900  -38159.288      243.32439     -37915.963      185.97888      187.18063      470.9912     
     54000  -38137.048      236.85207     -37900.196      185.96106      187.16265      471.17671    
     54100  -38117.386      233.8612      -37883.524      185.9418       187.14286      471.36221    
     54200  -38100.659      236.99903     -37863.66       185.92324      187.1238       471.54771    
     54300  -38080.142      242.66803     -37837.474      185.90528      187.10479      471.73321    
     54400  -38060.623      245.04946     -37815.573      185.88573      187.08414      471.91872    
     54500  -38042.996      242.19444     -37800.801      185.86843      187.06614      472.10422    
     54600  -38024.23       239.64326     -37784.587      185.84961      187.04552      472.28972    
     54700  -38006.2        239.04202     -37767.158      185.83183      187.02609      472.47523    
     54800  -37986.415      236.78591     -37749.629      185.81403      187.00619      472.66073    
     54900  -37969.678      237.2389      -37732.44       185.79635      186.98656      472.84623    
     55000  -37947.857      233.19463     -37714.662      185.77809      186.96654      473.03173    
     55100  -37930.614      235.31905     -37695.295      185.76072      186.94753      473.21724    
     55200  -37910.091      238.6547      -37671.436      185.74161      186.92709      473.40274    
     55300  -37890.878      242.6901      -37648.188      185.72413      186.90809      473.58824    
     55400  -37868.333      236.39152     -37631.941      185.70543      186.8887       473.77374    
     55500  -37853.249      236.4423      -37616.807      185.6872       186.87025      473.95925    
     55600  -37832.222      235.97998     -37596.242      185.66782      186.85111      474.14475    
     55700  -37814.704      239.22469     -37575.479      185.6494       186.83347      474.33025    
     55800  -37792.963      236.6793      -37556.284      185.62971      186.81455      474.51575    
     55900  -37774.082      232.62991     -37541.452      185.61029      186.79604      474.70126    
     56000  -37757.716      234.07317     -37523.643      185.59086      186.77821      474.88676    
     56100  -37738.757      236.54038     -37502.216      185.57083      186.75971      475.07226    
     56200  -37717.657      242.06672     -37475.59       185.55198      186.74315      475.25776    
     56300  -37693.394      239.29205     -37454.102      185.53108      186.72458      475.44327    
     56400  -37679.855      240.70176     -37439.153      185.51242      186.70829      475.62877    
     56500  -37661.449      240.10298     -37421.346      185.49171      186.69011      475.81427    
     56600  -37642.904      238.98267     -37403.922      185.47236      186.67318      475.99978    
     56700  -37621.583      234.55024     -37387.033      185.45249      186.65565      476.18528    
     56800  -37602.046      234.16804     -37367.878      185.43271      186.63799      476.37078    
     56900  -37584.42       237.49652     -37346.923      185.41329      186.6202       476.55628    
     57000  -37562.805      239.29648     -37323.509      185.39376      186.60201      476.74179    
     57100  -37542.884      239.92566     -37302.958      185.37405      186.58352      476.92729    
     57200  -37525.577      237.70693     -37287.87       185.35469      186.56495      477.11279    
     57300  -37505.916      235.45629     -37270.46       185.33598      186.54652      477.29829    
     57400  -37489.349      237.80526     -37251.544      185.31681      186.52756      477.4838     
     57500  -37469.59       237.82482     -37231.765      185.29844      186.50894      477.6693     
     57600  -37447.596      234.82567     -37212.77       185.27894      186.48873      477.8548     
     57700  -37432.583      236.79905     -37195.784      185.26166      186.4709       478.0403     
     57800  -37412.143      236.3157      -37175.828      185.24207      186.45014      478.22581    
     57900  -37391.176      238.86306     -37152.313      185.22457      186.43113      478.41131    
     58000  -37373.072      245.44583     -37127.626      185.20647      186.41145      478.59681    
     58100  -37351.289      241.23671     -37110.052      185.18759      186.39089      478.78232    
     58200  -37328.708      233.84322     -37094.865      185.17114      186.37231      478.96782    
     58300  -37314.774      238.951       -37075.823      185.15198      186.35139      479.15332    
     58400  -37292.581      235.92701     -37056.654      185.13539      186.333        479.33882    
     58500  -37278.761      240.18949     -37038.572      185.11569      186.31196      479.52433    
     58600  -37257.685      236.15984     -37021.526      185.09865      186.29354      479.70983    
     58700  -37239.344      235.784       -37003.56       185.07991      186.27384      479.89533    
     58800  -37217.599      233.46428     -36984.135      185.06131      186.25418      480.08083    
     58900  -37197.061      237.94454     -36959.117      185.04359      186.23583      480.26634    
     59000  -37172.366      239.05186     -36933.314      185.02314      186.21509      480.45184    
     59100  -37155.365      241.45417     -36913.911      185.00562      186.19791      480.63734    
     59200  -37133.703      235.62313     -36898.08       184.98598      186.17859      480.82284    
     59300  -37114.615      236.62549     -36877.989      184.96761      186.16082      481.00835    
     59400  -37094.888      235.67433     -36859.213      184.94816      186.14207      481.19385    
     59500  -37077.729      236.92553     -36840.803      184.92895      186.12385      481.37935    
     59600  -37061.667      239.04209     -36822.625      184.90965      186.10596      481.56485    
     59700  -37039.877      233.47293     -36806.404      184.88957      186.08726      481.75036    
     59800  -37018.953      230.37309     -36788.58       184.87089      186.06998      481.93586    
     59900  -36997.72       235.22093     -36762.499      184.85025      186.0507       482.12136    
     60000  -36974.793      237.8652      -36736.928      184.83164      186.03336      482.30687    
     60100  -36950.246      233.90296     -36716.343      184.81071      186.01378      482.49237    
     60200  -36934.447      235.59694     -36698.85       184.79276      185.99734      482.67787    
     60300  -36916.334      235.76932     -36680.564      184.77096      185.97656      482.86337    
     60400  -36895.841      236.10794     -36659.733      184.75363      185.96027      483.04888    
     60500  -36874.411      234.36076     -36640.05       184.73205      185.93912      483.23438    
     60600  -36859.209      234.91298     -36624.296      184.71529      185.9227       483.41988    
     60700  -36836.477      231.92607     -36604.551      184.69366      185.90164      483.60538    
     60800  -36817.767      237.41045     -36580.357      184.67638      185.88444      483.79089    
     60900  -36792.359      236.57331     -36555.786      184.65604      185.86427      483.97639    
     61000  -36774.431      239.14286     -36535.289      184.63797      185.84615      484.16189    
     61100  -36757.106      236.39544     -36520.71       184.61899      185.82682      484.34739    
     61200  -36738.329      239.01757     -36499.312      184.59999      185.80738      484.5329     
     61300  -36715.051      238.72539     -36476.325      184.58185      185.78877      484.7184     
     61400  -36690.392      234.80673     -36455.586      184.56216      185.76858      484.9039     
     61500  -36673.518      236.01954     -36437.498      184.54468      185.75006      485.0894     
     61600  -36653.52       235.50277     -36418.017      184.52548      185.7299       485.27491    
     61700  -36634.783      239.38144     -36395.401      184.50712      185.71074      485.46041    
     61800  -36612.831      239.6444      -36373.187      184.48861      185.69134      485.64591    
     61900  -36593.14       238.76944     -36354.37       184.46988      185.6715       485.83142    
     62000  -36574.869      237.43247     -36337.436      184.45281      185.65325      486.01692    
     62100  -36550.16       236.97284     -36313.187      184.43282      185.63234      486.20242    
     62200  -36528.17       240.92151     -36287.249      184.41599      185.61459      486.38792    
     62300  -36501.342      236.75839     -36264.584      184.39584      185.59375      486.57343    
     62400  -36486.843      238.60789     -36248.235      184.37884      185.57611      486.75893    
     62500  -36464.211      236.89505     -36227.316      184.35902      185.55601      486.94443    
     62600  -36442.477      236.1057      -36206.371      184.34082      185.5375       487.12993    
     62700  -36425.142      238.75678     -36186.385      184.32193      185.51875      487.31544    
     62800  -36402.339      235.78391     -36166.555      184.30248      185.49952      487.50094    
     62900  -36379.943      236.22655     -36143.716      184.2837       185.48123      487.68644    
     63000  -36360.107      236.68647     -36123.42       184.26394      185.46233      487.87194    
     63100  -36345.011      239.87059     -36105.14       184.24519      185.44441      488.05745    
     63200  -36319.257      238.47935     -36080.778      184.2247       185.42481      488.24295    
     63300  -36292.833      238.48787     -36054.345      184.20643      185.40758      488.42845    
     63400  -36266.385      235.66796     -36030.717      184.18569      185.38779      488.61396    
     63500  -36251.075      238.02517     -36013.05       184.16795      185.37115      488.79946    
     63600  -36229.95       237.69842     -35992.252      184.14752      185.35189      488.98496    
     63700  -36209.406      239.8358      -35969.57       184.12847      185.33399      489.17046    
     63800  -36185.954      238.52005     -35947.434      184.10901      185.31584      489.35597    
     63900  -36165.544      237.21191     -35928.332      184.08969      185.29769      489.54147    
     64000  -36138.687      232.81341     -35905.873      184.07098      185.27966      489.72697    
     64100  -36120.021      238.20548     -35881.816      184.0509       185.26038      489.91247    
     64200  -36095.521      238.49281     -35857.028      184.03279      185.24269      490.09798    
     64300  -36072.505      235.16897     -35837.336      184.01266      185.22291      490.28348    
     64400  -36054.558      239.31775     -35815.24       183.9955       185.20643      490.46898    
     64500  -36033.154      241.45996     -35791.694      183.97517      185.18638      490.65448    
     64600  -36006.766      238.44814     -35768.318      183.95795      185.16948      490.83999    
     64700  -35983.453      235.88486     -35747.569      183.9382       185.14963      491.02549    
     64800  -35961.634      237.03308     -35724.601      183.92063      185.132        491.21099    
     64900  -35939.961      240.52877     -35699.432      183.90134      185.11254      491.39649    
     65000  -35913.37       238.33126     -35675.038      183.8837       185.09451      491.582      
     65100  -35889.019      235.88058     -35653.138      183.86483      185.075        491.7675     
     65200  -35870.26       240.82733     -35629.433      183.84783      185.0575       491.953      
     65300  -35844.254      238.10411     -35606.15       183.82852      185.03711      492.13851    
     65400  -35819.816      236.34542     -35583.471      183.81212      185.01966      492.32401    
     65500  -35799.256      238.81482     -35560.441      183.79283      184.99892      492.50951    
     65600  -35776.485      239.8123      -35536.673      183.77696      184.98182      492.69501    
     65700  -35750.347      237.58075     -35512.766      183.75756      184.96062      492.88052    
     65800  -35726.653      237.76257     -35488.89       183.74156      184.94316      493.06602    
     65900  -35704.029      238.62368     -35465.405      183.72276      184.92316      493.25152    
     66000  -35680.308      238.1463      -35442.162      183.70574      184.90504      493.43702    
     66100  -35657.16       238.14167     -35419.018      183.68778      184.88616      493.62253    
     66200  -35632.882      238.46939     -35394.413      183.66931      184.86712      493.80803    
     66300  -35607.6        237.73171     -35369.868      183.65238      184.84953      493.99353    
     66400  -35582.876      236.80779     -35346.068      183.63327      184.83017      494.17903    
     66500  -35560.188      239.23425     -35320.953      183.61647      184.81333      494.36454    
     66600  -35536.225      239.90624     -35296.318      183.59698      184.79391      494.55004    
     66700  -35515.074      243.24617     -35271.828      183.58025      184.77742      494.73554    
     66800  -35488.139      240.30763     -35247.832      183.5605       184.75835      494.92104    
     66900  -35462.554      238.04962     -35224.504      183.54333      184.74237      495.10655    
     67000  -35438.895      239.12148     -35199.773      183.52406      184.72419      495.29205    
     67100  -35409.402      234.79746     -35174.604      183.50641      184.7078       495.47755    
     67200  -35387.274      237.34581     -35149.928      183.48753      184.69031      495.66306    
     67300  -35360.187      236.23217     -35123.955      183.46945      184.67361      495.84856    
     67400  -35338.542      240.28429     -35098.258      183.45066      184.65613      496.03406    
     67500  -35313.765      241.58041     -35072.185      183.43304      184.63943      496.21956    
     67600  -35287.715      240.7097      -35047.006      183.41437      184.62213      496.40507    
     67700  -35260.418      240.08046     -35020.338      183.39725      184.60579      496.59057    
     67800  -35235.614      240.61894     -34994.995      183.37849      184.5877       496.77607    
     67900  -35208.634      240.01323     -34968.621      183.36155      184.5711       496.96157    
     68000  -35181.212      239.19389     -34942.018      183.34329      184.55288      497.14708    
     68100  -35156.697      240.72224     -34915.975      183.32668      184.53616      497.33258    
     68200  -35132.156      241.49925     -34890.657      183.30894      184.51805      497.51808    
     68300  -35106.1        240.98141     -34865.119      183.29208      184.50064      497.70358    
     68400  -35077.826      238.24401     -34839.582      183.2754       184.48352      497.88909    
     68500  -35052.075      238.14447     -34813.931      183.25777      184.46541      498.07459    
     68600  -35029.649      242.67268     -34786.977      183.24192      184.44895      498.26009    
     68700  -35001.968      241.9614      -34760.007      183.22412      184.43039      498.4456     
     68800  -34975.251      243.29885     -34731.952      183.20851      184.41404      498.6311     
     68900  -34947.673      243.52686     -34704.146      183.19104      184.39543      498.8166     
     69000  -34918.857      241.58731     -34677.269      183.17537      184.37846      499.0021     
     69100  -34888.532      238.83101     -34649.701      183.15866      184.36031      499.18761    
     69200  -34863.336      239.55753     -34623.778      183.14301      184.34351      499.37311    
     69300  -34837.98       241.3081      -34596.672      183.126        184.32557      499.55861    
     69400  -34813.482      243.85708     -34569.625      183.11022      184.30891      499.74411    
     69500  -34781.559      239.00425     -34542.555      183.09372      184.29151      499.92962    
     69600  -34756.822      242.66331     -34514.159      183.07753      184.27446      500.11512    
     69700  -34722.814      236.0949      -34486.719      183.06135      184.25739      500.30062    
     69800  -34701.051      242.02345     -34459.027      183.04539      184.24088      500.48612    
     69900  -34672.294      242.44491     -34429.849      183.02911      184.22407      500.67163    
     70000  -34642.683      241.65872     -34401.025      183.01268      184.2074       500.85713    
     70100  -34613.987      240.90851     -34373.078      182.99666      184.19133      501.04263    
     70200  -34581.535      238.30846     -34343.226      182.97997      184.17478      501.22813    
     70300  -34559.253      245.15763     -34314.096      182.96381      184.15897      501.41364    
     70400  -34528.843      245.29327     -34283.549      182.94739      184.14297      501.59914    
     70500  -34498.27       243.78804     -34254.482      182.93042      184.1267       501.78464    
     70600  -34468.408      242.49647     -34225.912      182.91492      184.11188      501.97015    
     70700  -34438.919      242.04269     -34196.877      182.89708      184.09495      502.15565    
     70800  -34414.412      244.9837      -34169.428      182.88176      184.0807       502.34115    
     70900  -34382.026      242.07544     -34139.95       182.86388      184.06398      502.52665    
     71000  -34352.334      242.63855     -34109.695      182.84846      184.04976      502.71216    
     71100  -34321.133      240.70259     -34080.43       182.83101      184.03364      502.89766    
     71200  -34290.06       239.45648     -34050.604      182.81508      184.01892      503.08316    
     71300  -34265.058      242.92159     -34022.136      182.79824      184.00334      503.26866    
     71400  -34235.4        243.31288     -33992.087      182.78214      183.98836      503.45417    
     71500  -34204.275      242.19099     -33962.084      182.76553      183.9727       503.63967    
     71600  -34175.207      242.50361     -33932.703      182.74947      183.95769      503.82517    
     71700  -34147.535      246.24672     -33901.288      182.73324      183.94215      504.01067    
     71800  -34117.911      247.78118     -33870.13       182.71772      183.92722      504.19618    
     71900  -34083.834      244.60114     -33839.232      182.70162      183.91153      504.38168    
     72000  -34054.163      245.29014     -33808.872      182.68603      183.89618      504.56718    
     72100  -34024.938      247.23194     -33777.706      182.67027      183.88068      504.75268    
     72200  -33994.075      246.37652     -33747.699      182.65472      183.86525      504.93819    
     72300  -33965.729      248.90752     -33716.821      182.63939      183.84987      505.12369    
     72400  -33931.419      246.92248     -33684.497      182.62384      183.83421      505.30919    
     72500  -33898.065      244.52626     -33653.539      182.60889      183.81877      505.4947     
     72600  -33867.787      246.81037     -33620.977      182.59363      183.80294      505.6802     
     72700  -33833.532      244.57166     -33588.96       182.57863      183.78738      505.8657     
     72800  -33804.435      247.17039     -33557.265      182.56352      183.77154      506.0512     
[...]
     81600  -44138.97       223.48848     -43915.482      182.34118      183.88156      522.37544    
     81700  -44147.43       209.21438     -43938.215      182.37027      183.92861      522.56094    
     81800  -44133.878      221.23605     -43912.642      182.39798      183.96814      522.74644    
     81900  -44113.623      248.08638     -43865.536      182.42591      184.00521      522.93194    
     82000  -44102.929      258.42183     -43844.507      182.45104      184.03791      523.11745    
     82100  -44127.421      252.2766      -43875.144      182.47213      184.07305      523.30295    
     82200  -44143.451      221.8248      -43921.626      182.49097      184.11557      523.48845    
     82300  -44152.92       215.33055     -43937.59       182.50696      184.15505      523.67395    
     82400  -44131.985      232.52484     -43899.46       182.52491      184.20249      523.85946    
     82500  -44119.576      250.65294     -43868.923      182.54273      184.25722      524.04496    
     82600  -44099.604      244.62428     -43854.98       182.56556      184.31222      524.23046    
     82700  -44099.518      240.45796     -43859.06       182.58333      184.36326      524.41596    
     82800  -44101.398      236.52271     -43864.875      182.59917      184.40626      524.60147    
     82900  -44120.031      247.44867     -43872.583      182.62775      184.45161      524.78697    
     83000  -44141.44       244.94        -43896.5        182.64589      184.4867       524.97247    
     83100  -44164.741      233.68751     -43931.054      182.67106      184.51578      525.15798    
     83200  -44172.12       218.8884      -43953.231      182.69442      184.53205      525.34348    
     83300  -44174.083      226.6927      -43947.39       182.72077      184.54829      525.52898    
     83400  -44144.432      228.94525     -43915.487      182.73676      184.5569       525.71448    
     83500  -44123.743      250.07101     -43873.672      182.75215      184.56989      525.89999    
     83600  -44120.929      258.89974     -43862.029      182.75291      184.58503      526.08549    
     83700  -44148.759      247.10317     -43901.656      182.75286      184.61025      526.27099    
     83800  -44174.805      227.27491     -43947.531      182.74635      184.63063      526.45649    
     83900  -44188.595      220.73296     -43967.862      182.7452       184.65841      526.642      
     84000  -44193.307      231.67235     -43961.635      182.73821      184.68448      526.8275     
     84100  -44187.908      244.27014     -43943.637      182.73261      184.72184      527.013      
     84200  -44175.927      242.79245     -43933.135      182.72457      184.75861      527.1985     
     84300  -44174.148      241.13303     -43933.015      182.72143      184.79943      527.38401    
     84400  -44171.483      233.86988     -43937.614      182.71674      184.83579      527.56951    
     84500  -44180.554      238.88953     -43941.665      182.71723      184.87145      527.75501    
     84600  -44187.974      236.80286     -43951.171      182.71458      184.90201      527.94051    
     84700  -44191.572      229.61877     -43961.953      182.71563      184.93081      528.12602    
     84800  -44189.45       228.70465     -43960.745      182.71993      184.95172      528.31152    
     84900  -44172.91       230.38541     -43942.524      182.73048      184.96489      528.49702    
     85000  -44155.572      242.56668     -43913.006      182.7401       184.9708       528.68253    
     85100  -44139.722      247.36465     -43892.357      182.75129      184.97164      528.86803    
     85200  -44144.544      248.22313     -43896.321      182.76352      184.96607      529.05353    
     85300  -44160.395      239.65989     -43920.735      182.77325      184.95434      529.23903    
     85400  -44175.551      227.5853      -43947.966      182.7812       184.94245      529.42454    
     85500  -44184.517      227.35904     -43957.158      182.7921       184.93184      529.61004    
     85600  -44177.298      229.96758     -43947.331      182.80612      184.92097      529.79554    
     85700  -44176.059      243.52477     -43932.534      182.81514      184.90797      529.98104    
     85800  -44177.246      248.01302     -43929.233      182.82274      184.90063      530.16655    
     85900  -44165.73       229.08051     -43936.65       182.82807      184.89728      530.35205    
     86000  -44166.344      229.19246     -43937.152      182.82938      184.8933       530.53755    
     86100  -44162.148      238.39946     -43923.748      182.83268      184.89463      530.72305    
     86200  -44160.621      250.21935     -43910.402      182.83151      184.89766      530.90856    
     86300  -44169.642      249.5262      -43920.116      182.82996      184.90499      531.09406    
     86400  -44182.036      232.41913     -43949.617      182.83002      184.91603      531.27956    
     86500  -44187.268      220.71273     -43966.555      182.82441      184.92744      531.46507    
     86600  -44179.829      223.69678     -43956.132      182.81909      184.94158      531.65057    
     86700  -44166.429      239.32142     -43927.108      182.80593      184.94995      531.83607    
     86800  -44163.725      258.5708      -43905.154      182.79939      184.96195      532.02157    
     86900  -44167.38       248.65631     -43918.724      182.78428      184.96665      532.20708    
     87000  -44180.777      229.67378     -43951.103      182.77302      184.97279      532.39258    
     87100  -44189.543      222.06507     -43967.478      182.76306      184.9716       532.57808    
     87200  -44193.682      234.05239     -43959.629      182.75575      184.96794      532.76358    
     87300  -44189.093      244.28906     -43944.804      182.75122      184.96507      532.94909    
     87400  -44193.703      246.8315      -43946.871      182.74619      184.96099      533.13459    
     87500  -44201.001      232.6336      -43968.367      182.73854      184.95231      533.32009    
     87600  -44202.516      221.46771     -43981.048      182.73462      184.94502      533.50559    
     87700  -44191.286      226.77342     -43964.512      182.73185      184.93638      533.6911     
     87800  -44176.224      244.64691     -43931.578      182.73133      184.92938      533.8766     
     87900  -44172.933      255.91407     -43917.019      182.73397      184.91684      534.0621     
     88000  -44182.869      242.52883     -43940.34       182.74107      184.90679      534.2476     
     88100  -44202.972      227.32471     -43975.647      182.74964      184.89342      534.43311    
     88200  -44216.146      222.13119     -43994.015      182.75977      184.87812      534.61861    
     88300  -44223.336      236.22399     -43987.112      182.76661      184.86257      534.80411    
     88400  -44219.345      246.7132      -43972.632      182.77179      184.84904      534.98962    
     88500  -44216.076      243.25016     -43972.826      182.77268      184.8349       535.17512    
     88600  -44225.216      238.65063     -43986.566      182.77085      184.82597      535.36062    
     88700  -44223.603      226.59084     -43997.012      182.7683       184.81913      535.54612    
     88800  -44214.698      226.75046     -43987.948      182.76501      184.81998      535.73163    
     88900  -44206.556      243.29441     -43963.261      182.75749      184.8236       535.91713    
     89000  -44202.479      253.56888     -43948.911      182.75201      184.83825      536.10263    
     89100  -44211.95       246.74057     -43965.209      182.74449      184.85473      536.28813    
     89200  -44230.114      233.20793     -43996.906      182.73828      184.87672      536.47364    
     89300  -44234.89       220.84547     -44014.045      182.73095      184.89722      536.65914    
     89400  -44228.925      226.68101     -44002.244      182.72685      184.92037      536.84464    
     89500  -44216.477      245.07862     -43971.398      182.72069      184.94083      537.03014    
     89600  -44206.263      253.1724      -43953.091      182.71819      184.96147      537.21565    
     89700  -44207.027      244.01007     -43963.017      182.71552      184.97649      537.40115    
     89800  -44219.426      234.6253      -43984.8        182.71211      184.99378      537.58665    
     89900  -44224.726      227.95001     -43996.776      182.7068       185.00986      537.77215    
     90000  -44223.757      232.7561      -43991.001      182.70508      185.02919      537.95766    
     90100  -44219.607      241.79156     -43977.816      182.70305      185.04261      538.14316    
     90200  -44213.939      244.28891     -43969.65       182.70689      185.05769      538.32866    
     90300  -44211.378      240.35333     -43971.024      182.7118       185.06808      538.51417    
     90400  -44211.349      235.14484     -43976.204      182.72479      185.08009      538.69967    
     90500  -44212.054      235.0101      -43977.044      182.73844      185.09099      538.88517    
     90600  -44211.793      237.50437     -43974.289      182.75429      185.10524      539.07067    
     90700  -44211.474      238.89084     -43972.583      182.7623       185.11441      539.25618    
     90800  -44216.79       242.36849     -43974.421      182.77358      185.12821      539.44168    
     90900  -44224.614      240.81308     -43983.801      182.77826      185.13877      539.62718    
     91000  -44227.128      233.42838     -43993.7        182.78803      185.15529      539.81268    
     91100  -44222.426      229.20783     -43993.218      182.78859      185.16823      539.99819    
     91200  -44214.043      233.77012     -43980.273      182.79341      185.18646      540.18369    
     91300  -44200.401      241.34383     -43959.057      182.7898       185.20125      540.36919    
     91400  -44191.047      246.63572     -43944.411      182.79166      185.22588      540.55469    
     91500  -44199.705      247.74825     -43951.956      182.7851       185.24446      540.7402     
     91600  -44208.954      232.93097     -43976.023      182.78056      185.26475      540.9257     
     91700  -44216.843      224.73907     -43992.104      182.77014      185.28079      541.1112     
     91800  -44205.932      221.73404     -43984.198      182.7628       185.29685      541.2967     
     91900  -44195.353      239.25035     -43956.103      182.75553      185.30816      541.48221    
     92000  -44186.028      252.42791     -43933.6        182.75127      185.31811      541.66771    
     92100  -44187.392      249.44135     -43937.951      182.74363      185.32416      541.85321    
     92200  -44196.386      234.40534     -43961.98       182.73946      185.33033      542.03872    
     92300  -44205.187      223.30806     -43981.879      182.73593      185.33051      542.22422    
     92400  -44208.808      227.43074     -43981.377      182.73402      185.3256       542.40972    
     92500  -44203.956      239.92852     -43964.027      182.73035      185.31348      542.59522    
     92600  -44187.86       241.88829     -43945.971      182.73132      185.30128      542.78073    
     92700  -44189.556      245.50339     -43944.052      182.73171      185.28829      542.96623    
     92800  -44196.56       238.1024      -43958.458      182.7323       185.2723       543.15173    
     92900  -44204.51       231.94194     -43972.568      182.73532      185.25285      543.33723    
     93000  -44204.237      230.66299     -43973.574      182.73563      185.22856      543.52274    
     93100  -44201.207      239.35083     -43961.856      182.73663      185.20784      543.70824    
     93200  -44205.451      250.39407     -43955.057      182.7367       185.18804      543.89374    
     93300  -44210.761      244.126       -43966.635      182.73725      185.1676       544.07924    
     93400  -44219.61       231.51907     -43988.091      182.73254      185.14066      544.26475    
     93500  -44222.739      225.5182      -43997.221      182.72958      185.11644      544.45025    
     93600  -44219.86       234.20674     -43985.653      182.72319      185.09351      544.63575    
     93700  -44210.676      243.65362     -43967.022      182.71336      185.074        544.82126    
     93800  -44210.47       246.83262     -43963.638      182.70236      185.0543       545.00676    
     93900  -44216.677      235.94394     -43980.733      182.69391      185.03984      545.19226    
     94000  -44231.988      232.0514      -43999.937      182.68168      185.02636      545.37776    
     94100  -44233.67       226.97335     -44006.697      182.67153      185.01717      545.56327    
     94200  -44229.436      233.98419     -43995.451      182.65958      185.00644      545.74877    
     94300  -44215.855      239.59576     -43976.259      182.65035      185.00342      545.93427    
     94400  -44211.01       246.39556     -43964.615      182.63791      184.9961       546.11977    
     94500  -44212.864      243.89028     -43968.973      182.62926      184.99744      546.30528    
     94600  -44219.036      235.80588     -43983.23       182.61796      184.99307      546.49078    
     94700  -44221.822      228.82977     -43992.992      182.61286      184.9947       546.67628    
     94800  -44226.684      235.40406     -43991.28       182.60684      184.99108      546.86178    
     94900  -44220.402      239.42366     -43980.979      182.60273      184.99068      547.04729    
     95000  -44215.878      242.08346     -43973.795      182.59822      184.98413      547.23279    
     95100  -44219.819      242.97998     -43976.839      182.59664      184.97825      547.41829    
     95200  -44222.743      235.37023     -43987.373      182.59628      184.96923      547.60379    
     95300  -44227.726      231.51714     -43996.208      182.59902      184.96197      547.7893     
     95400  -44227.92       232.75509     -43995.165      182.59804      184.95225      547.9748     
     95500  -44222.893      237.42687     -43985.466      182.60105      184.94516      548.1603     
     95600  -44218.847      240.91465     -43977.932      182.60242      184.93766      548.34581    
     95700  -44218.92       237.21303     -43981.707      182.60673      184.93286      548.53131    
     95800  -44220.427      230.55904     -43989.868      182.61089      184.93087      548.71681    
     95900  -44223.986      233.30861     -43990.678      182.61834      184.93395      548.90231    
     96000  -44219.034      237.91126     -43981.122      182.61886      184.93519      549.08782    
     96100  -44207.888      239.70405     -43968.183      182.62117      184.94284      549.27332    
     96200  -44204.611      241.90365     -43962.707      182.61591      184.94822      549.45882    
     96300  -44207.646      239.17187     -43968.474      182.61333      184.96161      549.64432    
     96400  -44209.828      233.46523     -43976.363      182.60239      184.97265      549.82983    
     96500  -44211.046      233.7896      -43977.256      182.59441      184.98796      550.01533    
     96600  -44203.91       234.76107     -43969.149      182.58586      185.00119      550.20083    
     96700  -44199.63       240.5894      -43959.041      182.57886      185.01794      550.38633    
     96800  -44200.385      244.37935     -43956.006      182.56752      185.02968      550.57184    
     96900  -44208.313      242.62526     -43965.688      182.55899      185.04271      550.75734    
     97000  -44212.279      231.1865      -43981.093      182.54831      185.05027      550.94284    
     97100  -44217.72       229.60592     -43988.114      182.54142      185.05719      551.12834    
     97200  -44214.166      233.74996     -43980.416      182.53389      185.05723      551.31385    
     97300  -44203.946      239.16198     -43964.784      182.52945      185.0558       551.49935    
     97400  -44194.913      241.85957     -43953.053      182.52332      185.04704      551.68485    
     97500  -44191.879      238.66479     -43953.214      182.52223      185.03644      551.87036    
     97600  -44193.637      233.22725     -43960.41       182.51916      185.02275      552.05586    
     97700  -44198.553      232.36463     -43966.189      182.51932      185.00788      552.24136    
     97800  -44200.47       235.90106     -43964.569      182.51593      184.98974      552.42686    
     97900  -44196.489      236.24692     -43960.242      182.51252      184.97029      552.61237    
     98000  -44205.327      242.95844     -43962.369      182.50666      184.94711      552.79787    
     98100  -44210.76       238.25078     -43972.509      182.5029       184.92451      552.98337    
     98200  -44218.813      234.69427     -43984.118      182.49577      184.90097      553.16887    
     98300  -44217.743      230.79843     -43986.944      182.4873       184.87593      553.35438    
     98400  -44215.839      236.83939     -43978.999      182.48038      184.85226      553.53988    
     98500  -44211.684      242.57259     -43969.111      182.47208      184.82978      553.72538    
     98600  -44206.36       240.79758     -43965.562      182.46072      184.80625      553.91088    
     98700  -44212.535      240.0911      -43972.444      182.44882      184.78322      554.09639    
     98800  -44217.738      234.36131     -43983.377      182.43804      184.76301      554.28189    
     98900  -44221.304      231.96827     -43989.336      182.42273      184.74538      554.46739    
     99000  -44218.551      232.30031     -43986.251      182.40254      184.72722      554.6529     
     99100  -44214.891      239.77116     -43975.119      182.37973      184.7122       554.8384     
     99200  -44209.419      242.98698     -43966.432      182.35152      184.69715      555.0239     
     99300  -44210.922      242.20353     -43968.719      182.31991      184.68298      555.2094     
     99400  -44216.468      236.7111      -43979.757      182.29143      184.66978      555.39491    
     99500  -44221.406      229.93895     -43991.467      182.26174      184.65343      555.58041    
     99600  -44230.158      235.80145     -43994.356      182.23457      184.63801      555.76591    
     99700  -44222.844      235.76644     -43987.077      182.20673      184.6202       555.95141    
     99800  -44213.941      238.54738     -43975.394      182.17918      184.60088      556.13692    
     99900  -44212.655      243.3959      -43969.259      182.1535       184.58338      556.32242    
    100000  -44219.2        243.01794     -43976.183      182.13123      184.56647      556.50792    
Loop time of 2981.87 on 12 procs for 100000 steps with 6120 atoms

Performance: 2.898 ns/day, 8.283 hours/ns, 33.536 timesteps/s, 205.240 katom-step/s
78.4% CPU use with 12 MPI tasks x 1 OpenMP threads

MPI task timing breakdown:
Section |  min time  |  avg time  |  max time  |%varavg| %total
---------------------------------------------------------------
Pair    | 845.94     | 951.66     | 1297.3     | 368.3 | 31.91
Neigh   | 3.5581     | 4.5723     | 5.2898     |  22.8 |  0.15
Comm    | 441.74     | 765.82     | 933.21     | 409.0 | 25.68
Output  | 2.4055     | 2.5293     | 2.6706     |   4.2 |  0.08
Modify  | 1105.9     | 1166.5     | 1223.3     | 109.8 | 39.12
Other   |            | 90.75      |            |       |  3.04

Nlocal:            510 ave         671 max         357 min
Histogram: 2 1 1 0 0 3 3 1 0 1
Nghost:        1806.25 ave        2029 max        1562 min
Histogram: 1 2 1 0 0 2 3 0 2 1
Neighs:              0 ave           0 max           0 min
Histogram: 12 0 0 0 0 0 0 0 0 0

Total # of neighbors = 0
Ave neighs/atom = 0
Neighbor list builds = 621
Dangerous builds = 0
Total wall time: 0:49:42
