LAMMPS (2 Aug 2023 - Update 3)
OMP_NUM_THREADS environment is not set. Defaulting to 1 thread. (src/comm.cpp:98)
  using 1 OpenMP thread(s) per MPI task
Reading data file ...
  orthogonal box = (-100 -100 -2.331251) to (100 100 38.891558)
  3 by 4 by 1 MPI processor grid
  reading atoms ...
  920 atoms
  read_data CPU = 0.005 seconds
Replication is creating a 1x1x15 = 15 times larger system...
  orthogonal box = (-100 -100 -2.331251) to (100 100 616.01088)
  1 by 2 by 6 MPI processor grid
  13800 atoms
  replicate CPU = 0.002 seconds
System init for write_data ...
WARNING: Communication cutoff is 0.0. No ghost atoms will be generated. Atoms may get lost. (src/comm_brick.cpp:210)
Reading airebo potential file CH.airebo with DATE: 2011-10-25
Reading airebo potential file CH.airebo with DATE: 2011-10-25
Neighbor list info ...
  update: every = 1 steps, delay = 0 steps, check = yes
  max neighbors/atom: 2000, page size: 100000
  master list distance cutoff = 13.2
  ghost atom cutoff = 13.2
  binsize = 6.6, bins = 31 31 94
  5 neighbor lists, perpetual/occasional/extra = 5 0 0
  (1) pair airebo, perpetual, skip from (4)
      attributes: full, newton on, ghost
      pair build: skip/ghost
      stencil: none
      bin: none
  (2) pair airebo, perpetual, skip from (4)
      attributes: full, newton on, ghost
      pair build: skip/ghost
      stencil: none
      bin: none
  (3) pair lj/cut, perpetual, skip from (5)
      attributes: half, newton on, cut 13
      pair build: skip
      stencil: none
      bin: none
  (4) neighbor class addition, perpetual
      attributes: full, newton on, ghost
      pair build: full/bin/ghost
      stencil: full/ghost/bin/3d
      bin: standard
  (5) neighbor class addition, perpetual
      attributes: half, newton on, cut 13
      pair build: half/bin/atomonly/newton
      stencil: half/bin/3d
      bin: standard
Setting up sd style minimization ...
  Unit style    : metal
  Current step  : 0
Per MPI rank memory allocation (min/avg/max) = 12.17 | 12.36 | 12.55 Mbytes
   Step          Temp          E_pair         E_mol          TotEng         Press     
         0   0             -100055.86      0             -100055.86      322.36972    
         4   0             -100319.41      0             -100319.41      67.774962    
Loop time of 0.186597 on 12 procs for 4 steps with 13800 atoms

99.1% CPU use with 12 MPI tasks x 1 OpenMP threads

Minimization stats:
  Stopping criterion = energy tolerance
  Energy initial, next-to-last, final = 
     -100055.857334896  -100313.346644508  -100319.413309777
  Force two-norm initial, final = 168.98181 25.72934
  Force max component initial, final = 3.4211508 0.48894053
  Final line search alpha, max atom move = 0.14095332 0.068917792
  Iterations, force evaluations = 4 8

MPI task timing breakdown:
Section |  min time  |  avg time  |  max time  |%varavg| %total
---------------------------------------------------------------
Pair    | 0.17657    | 0.18006    | 0.18371    |   0.7 | 96.49
Neigh   | 0          | 0          | 0          |   0.0 |  0.00
Comm    | 0.00152    | 0.0049875  | 0.0084566  |   3.9 |  2.67
Output  | 0          | 0          | 0          |   0.0 |  0.00
Modify  | 0          | 0          | 0          |   0.0 |  0.00
Other   |            | 0.001554   |            |       |  0.83

Nlocal:           1150 ave        1193 max        1107 min
Histogram: 6 0 0 0 0 0 0 0 0 6
Nghost:           1724 ave        1767 max        1681 min
Histogram: 6 0 0 0 0 0 0 0 0 6
Neighs:              0 ave           0 max           0 min
Histogram: 12 0 0 0 0 0 0 0 0 0

Total # of neighbors = 0
Ave neighs/atom = 0
Neighbor list builds = 0
Dangerous builds = 0
Setting up Verlet run ...
  Unit style    : metal
  Current step  : 4
  Time step     : 0.001
Per MPI rank memory allocation (min/avg/max) = 12.79 | 12.98 | 13.17 Mbytes
   Step          Temp          E_pair         E_mol          TotEng         Press          Volume    
         4   300           -100319.41      0             -99784.315      90.883037      24733685     
Loop time of 5.05002e-05 on 12 procs for 0 steps with 13800 atoms

81.4% CPU use with 12 MPI tasks x 1 OpenMP threads

MPI task timing breakdown:
Section |  min time  |  avg time  |  max time  |%varavg| %total
---------------------------------------------------------------
Pair    | 0          | 0          | 0          |   0.0 |  0.00
Neigh   | 0          | 0          | 0          |   0.0 |  0.00
Comm    | 0          | 0          | 0          |   0.0 |  0.00
Output  | 0          | 0          | 0          |   0.0 |  0.00
Modify  | 0          | 0          | 0          |   0.0 |  0.00
Other   |            | 5.05e-05   |            |       |100.00

Nlocal:           1150 ave        1150 max        1150 min
Histogram: 12 0 0 0 0 0 0 0 0 0
Nghost:           1724 ave        1724 max        1724 min
Histogram: 12 0 0 0 0 0 0 0 0 0
Neighs:              0 ave           0 max           0 min
Histogram: 12 0 0 0 0 0 0 0 0 0

Total # of neighbors = 0
Ave neighs/atom = 0
Neighbor list builds = 0
Dangerous builds = 0
WARNING: New thermo_style command, previous thermo_modify settings will be lost (src/output.cpp:903)
WARNING: Dump 2 includes no atom IDs and is not sorted by ID. This may complicate post-processing tasks or visualization (src/dump.cpp:221)
Setting up Verlet run ...
  Unit style    : metal
  Current step  : 0
  Time step     : 0.001
Per MPI rank memory allocation (min/avg/max) = 14.29 | 14.48 | 14.67 Mbytes
   Step         PotEng         KinEng         TotEng           Lx             Ly             Lz      
         0  -100319.41      535.09822     -99784.315      200            200            618.34214    
       100  -100008.08      261.74137     -99746.34       200.00356      200.00544      618.65131    
       200  -100034.54      339.23984     -99695.301      199.99839      200.0038       618.96048    
       300  -99982.542      348.27184     -99634.27       199.99878      200.00941      619.26965    
       400  -99947.76       379.82384     -99567.936      199.9951       200.01044      619.57882    
       500  -99923.07       424.85136     -99498.219      199.99304      200.01186      619.88799    
       600  -99890.843      462.64675     -99428.196      199.99509      200.01432      620.19716    
       700  -99866.272      504.57343     -99361.699      199.99112      200.00958      620.50633    
       800  -99829.618      526.66505     -99302.953      199.99612      200.01391      620.8155     
       900  -99819.318      560.09825     -99259.22       199.98959      200.00864      621.12467    
      1000  -99797.538      558.69559     -99238.842      199.99154      200.0149       621.43385    
      1100  -99799.535      549.79784     -99249.737      199.98268      200.01241      621.74302    
      1200  -99815.481      539.94094     -99275.54       199.98219      200.018        622.05219    
      1300  -99818.622      528.69835     -99289.924      199.97561      200.01497      622.36136    
      1400  -99808.025      526.82435     -99281.201      199.9762       200.01653      622.67053    
      1500  -99794.58       536.99012     -99257.59       199.97206      200.0122       622.9797     
      1600  -99773.615      533.75309     -99239.862      199.97195      200.01351      623.28887    
      1700  -99787.166      545.40623     -99241.76       199.96511      200.00974      623.59804    
      1800  -99777.453      519.85395     -99257.599      199.96356      200.01393      623.90721    
      1900  -99794.014      525.37194     -99268.642      199.95333      200.00999      624.21639    
      2000  -99779.61       516.55495     -99263.055      199.9531       200.0151       624.52556    
      2100  -99779.186      533.49122     -99245.695      199.94335      200.00793      624.83473    
      2200  -99767.972      539.74382     -99228.229      199.94554      200.01058      625.1439     
      2300  -99769.905      544.6629      -99225.242      199.93669      200.00269      625.45307    
      2400  -99772.112      535.59403     -99236.518      199.93642      200.00452      625.76224    
      2500  -99780.488      534.13998     -99246.348      199.92674      199.99965      626.07141    
      2600  -99774.048      529.72003     -99244.328      199.92262      200.00173      626.38058    
      2700  -99770.315      540.96869     -99229.347      199.91304      199.99845      626.68975    
      2800  -99762.279      549.44316     -99212.836      199.90878      199.99869      626.99892    
      2900  -99756.241      549.62539     -99206.616      199.90159      199.99333      627.3081     
      3000  -99752.127      540.34551     -99211.781      199.89825      199.99077      627.61727    
      3100  -99752.66       533.29778     -99219.363      199.89157      199.9848       627.92644    
      3200  -99750.881      531.90408     -99218.977      199.88619      199.9826       628.23561    
      3300  -99742.127      535.18369     -99206.943      199.87786      199.97851      628.54478    
      3400  -99731.14       540.10623     -99191.034      199.87077      199.97698      628.85395    
      3500  -99719.421      539.45674     -99179.964      199.86149      199.97296      629.16312    
      3600  -99720.025      539.51333     -99180.511      199.85402      199.97034      629.47229    
      3700  -99712.29       524.87035     -99187.42       199.84628      199.96515      629.78146    
      3800  -99718.336      527.40485     -99190.931      199.83902      199.95944      630.09064    
      3900  -99711.949      528.1335      -99183.816      199.83206      199.95438      630.39981    
      4000  -99700.658      533.04506     -99167.613      199.82334      199.94917      630.70898    
      4100  -99690.477      537.46181     -99153.015      199.81408      199.94471      631.01815    
      4200  -99686.758      539.24215     -99147.516      199.80501      199.94001      631.32732    
      4300  -99686.993      535.19671     -99151.796      199.79496      199.93423      631.63649    
      4400  -99685.23       528.30037     -99156.93       199.78603      199.92905      631.94566    
      4500  -99684.425      530.96371     -99153.461      199.7761       199.92206      632.25483    
      4600  -99674.95       535.19482     -99139.755      199.76747      199.91649      632.564      
      4700  -99664.217      541.63208     -99122.585      199.75654      199.90912      632.87318    
      4800  -99657.858      544.73941     -99113.118      199.74711      199.90381      633.18235    
      4900  -99655.429      540.48715     -99114.942      199.73496      199.89612      633.49152    
      5000  -99653.259      534.81697     -99118.442      199.72554      199.89075      633.80069    
      5100  -99646.455      531.08075     -99115.375      199.71275      199.88145      634.10986    
      5200  -99636.625      534.33174     -99102.294      199.70422      199.87571      634.41903    
      5300  -99628.276      542.53396     -99085.742      199.69064      199.86494      634.7282     
      5400  -99618.054      543.29768     -99074.756      199.68169      199.85895      635.03737    
      5500  -99609.675      538.13002     -99071.545      199.66679      199.84839      635.34654    
      5600  -99600.301      526.79682     -99073.504      199.65587      199.84263      635.65571    
      5700  -99602.438      529.69066     -99072.747      199.64003      199.83175      635.96489    
      5800  -99593.31       530.41742     -99062.893      199.6295       199.82484      636.27406    
      5900  -99587.873      539.64404     -99048.229      199.61405      199.81182      636.58323    
      6000  -99574.166      539.06751     -99035.099      199.60393      199.80401      636.8924     
      6100  -99565.166      535.64656     -99029.519      199.58759      199.79034      637.20157    
      6200  -99558.915      529.36655     -99029.549      199.57569      199.78307      637.51074    
      6300  -99559.948      532.13835     -99027.81       199.55735      199.77059      637.81991    
      6400  -99546.358      527.81148     -99018.547      199.54414      199.76303      638.12908    
      6500  -99546.597      542.79263     -99003.804      199.5261       199.74982      638.43825    
      6600  -99525.827      534.98517     -98990.841      199.51347      199.74029      638.74743    
      6700  -99521.958      538.79173     -98983.166      199.49648      199.72532      639.0566     
      6800  -99514.954      533.58406     -98981.37       199.48318      199.71433      639.36577    
      6900  -99515.924      536.9436      -98978.981      199.46535      199.7          639.67494    
      7000  -99504.491      534.01136     -98970.48       199.44974      199.68917      639.98411    
      7100  -99492.032      536.0036      -98956.028      199.43033      199.676        640.29328    
      7200  -99480.471      540.07992     -98940.391      199.41339      199.66496      640.60245    
      7300  -99464.906      535.65871     -98929.247      199.39419      199.6504       640.91162    
      7400  -99466.79       541.37544     -98925.415      199.37705      199.63716      641.22079    
      7500  -99454.917      531.16374     -98923.754      199.3578       199.62178      641.52997    
      7600  -99452.349      534.54921     -98917.8        199.33958      199.60758      641.83914    
      7700  -99439.449      534.55692     -98904.892      199.31995      199.59179      642.14831    
      7800  -99427.833      540.20894     -98887.624      199.30068      199.57646      642.45748    
      7900  -99413.662      538.74588     -98874.916      199.28         199.56022      642.76665    
      8000  -99407.039      537.30343     -98869.735      199.25987      199.54463      643.07582    
      8100  -99400.982      534.38079     -98866.601      199.23775      199.52755      643.38499    
      8200  -99393.356      532.66461     -98860.691      199.21626      199.51167      643.69416    
      8300  -99383.345      534.5116      -98848.834      199.19332      199.49425      644.00333    
      8400  -99366.796      535.03066     -98831.765      199.17153      199.4768       644.3125     
      8500  -99358.445      540.62057     -98817.825      199.14899      199.45745      644.62168    
      8600  -99347.972      537.74652     -98810.226      199.12674      199.43868      644.93085    
      8700  -99337.304      530.99492     -98806.309      199.10277      199.41923      645.24002    
      8800  -99333.086      532.73063     -98800.355      199.07885      199.4002       645.54919    
      8900  -99314.445      525.27832     -98789.166      199.05418      199.38031      645.85836    
      9000  -99307.858      534.1747      -98773.684      199.02938      199.3605       646.16753    
      9100  -99289.328      532.08646     -98757.242      199.00391      199.33991      646.4767     
      9200  -99281.327      536.12991     -98745.197      198.97863      199.31895      646.78587    
      9300  -99272.059      533.61385     -98738.446      198.95228      199.29731      647.09504    
      9400  -99265.779      532.1004      -98733.679      198.92559      199.27582      647.40422    
      9500  -99256.233      531.65744     -98724.576      198.89836      199.25388      647.71339    
      9600  -99240.72       529.91646     -98710.804      198.87015      199.23171      648.02256    
      9700  -99230.17       535.57001     -98694.6        198.84234      199.20911      648.33173    
      9800  -99225.621      544.83939     -98680.782      198.81404      199.18534      648.6409     
      9900  -99211.349      538.37271     -98672.976      198.78522      199.16178      648.95007    
     10000  -99202.548      534.46723     -98668.081      198.75562      199.13806      649.25924    
     10100  -99188.182      528.85109     -98659.331      198.72552      199.11459      649.56841    
     10200  -99172.722      528.49982     -98644.222      198.69462      199.09055      649.87758    
     10300  -99164.447      537.85962     -98626.587      198.66452      199.0659       650.18675    
     10400  -99153.422      542.82967     -98610.593      198.63456      199.03959      650.49593    
     10500  -99136.335      535.72388     -98600.612      198.60418      199.01355      650.8051     
     10600  -99125.491      530.9724      -98594.519      198.57239      198.98797      651.11427    
     10700  -99120.199      534.40107     -98585.798      198.53914      198.96298      651.42344    
     10800  -99101.934      531.1804      -98570.753      198.50567      198.93806      651.73261    
     10900  -99091.946      539.44483     -98552.501      198.47193      198.9115       652.04178    
     11000  -99073.77       538.02729     -98535.742      198.43985      198.8841       652.35095    
     11100  -99059.109      533.86954     -98525.24       198.40723      198.85475      652.66012    
     11200  -99053.053      533.96937     -98519.083      198.37456      198.8266       652.96929    
     11300  -99041.329      530.97386     -98510.355      198.3394       198.79826      653.27847    
     11400  -99035.071      539.0768      -98495.994      198.30415      198.77195      653.58764    
     11500  -99011.144      533.26538     -98477.879      198.2672       198.74405      653.89681    
     11600  -99000.244      538.7077      -98461.536      198.23242      198.71604      654.20598    
     11700  -98986.903      536.48339     -98450.42       198.19726      198.68541      654.51515    
     11800  -98979.798      536.92013     -98442.878      198.16339      198.65572      654.82432    
     11900  -98967.008      533.86106     -98433.147      198.12709      198.62555      655.13349    
     12000  -98951.803      534.45269     -98417.351      198.09068      198.59748      655.44266    
     12100  -98931.174      535.59362     -98395.581      198.05285      198.56884      655.75183    
     12200  -98916.229      537.05913     -98379.17       198.01617      198.54016      656.06101    
     12300  -98903.332      534.76735     -98368.564      197.97998      198.50955      656.37018    
     12400  -98890.937      533.81208     -98357.125      197.94438      198.47887      656.67935    
     12500  -98877.546      533.07272     -98344.473      197.90814      198.44803      656.98852    
     12600  -98861.966      531.62156     -98330.344      197.87124      198.41776      657.29769    
     12700  -98848.619      535.26751     -98313.351      197.83385      198.38816      657.60686    
     12800  -98833.749      540.23767     -98293.512      197.79598      198.35818      657.91603    
     12900  -98819.188      540.67544     -98278.513      197.7588       198.32806      658.2252     
     13000  -98804.738      531.10494     -98273.634      197.72186      198.29679      658.53437    
     13100  -98799.027      536.33437     -98262.693      197.6857       198.26601      658.84354    
     13200  -98777.254      530.52588     -98246.728      197.64822      198.23484      659.15272    
     13300  -98763.511      536.49795     -98227.013      197.6114       198.20551      659.46189    
     13400  -98743.132      537.8608      -98205.271      197.5727       198.17512      659.77106    
     13500  -98730.112      543.11786     -98186.994      197.53658      198.14569      660.08023    
     13600  -98723.409      540.27586     -98183.133      197.50006      198.11323      660.3894     
     13700  -98708.508      534.27426     -98174.234      197.46608      198.08231      660.69857    
     13800  -98693.179      532.73364     -98160.445      197.42957      198.05033      661.00774    
     13900  -98678.712      535.4487      -98143.264      197.3942       198.02184      661.31691    
     14000  -98658.45       536.30299     -98122.147      197.35651      197.99256      661.62608    
     14100  -98646.337      543.62003     -98102.717      197.32112      197.96444      661.93526    
     14200  -98624.546      532.04032     -98092.506      197.28539      197.93433      662.24443    
     14300  -98617.929      531.80501     -98086.124      197.25229      197.90514      662.5536     
     14400  -98602.148      532.7251      -98069.423      197.21845      197.87421      662.86277    
     14500  -98580.028      532.76607     -98047.262      197.18636      197.84529      663.17194    
     14600  -98563.178      535.2846      -98027.893      197.15155      197.81619      663.48111    
     14700  -98545.73       532.53647     -98013.194      197.1177       197.79042      663.79028    
     14800  -98539.954      540.347       -97999.607      197.08217      197.76326      664.09945    
     14900  -98518.114      532.86462     -97985.25       197.0498       197.73713      664.40862    
     15000  -98502.619      532.99911     -97969.62       197.01764      197.70816      664.7178     
     15100  -98490.077      536.5991      -97953.478      196.98848      197.68071      665.02697    
     15200  -98473.876      538.34668     -97935.529      196.95698      197.65229      665.33614    
     15300  -98447.59       533.28028     -97914.309      196.92706      197.62716      665.64531    
     15400  -98437.688      543.71883     -97893.969      196.89533      197.60099      665.95448    
     15500  -98419.636      535.82574     -97883.81       196.86568      197.57668      666.26365    
     15600  -98403.494      529.68489     -97873.809      196.83556      197.55099      666.57282    
     15700  -98392.215      535.50691     -97856.708      196.80742      197.5265       666.88199    
     15800  -98370.445      534.40045     -97836.045      196.77882      197.50126      667.19116    
     15900  -98346.493      533.79514     -97812.698      196.75172      197.47711      667.50033    
     16000  -98332.696      544.93516     -97787.76       196.72419      197.45247      667.80951    
     16100  -98314.49       538.57949     -97775.91       196.69781      197.42906      668.11868    
     16200  -98303.683      534.74691     -97768.936      196.67081      197.4053       668.42785    
     16300  -98291.097      535.90481     -97755.192      196.64512      197.38319      668.73702    
     16400  -98274.073      535.68161     -97738.391      196.61892      197.36037      669.04619    
     16500  -98246.65       530.52414     -97716.126      196.59412      197.33921      669.35536    
     16600  -98232.132      538.59933     -97693.532      196.56853      197.31731      669.66453    
     16700  -98217.897      540.48397     -97677.413      196.54527      197.29664      669.9737     
     16800  -98207.502      536.44415     -97671.058      196.52171      197.27483      670.28287    
     16900  -98184.311      529.85665     -97654.454      196.49959      197.25442      670.59205    
     17000  -98164.914      533.19121     -97631.722      196.47698      197.23418      670.90122    
     17100  -98141.635      532.94805     -97608.687      196.45489      197.21516      671.21039    
     17200  -98126.571      536.80209     -97589.769      196.43262      197.19669      671.51956    
     17300  -98112.805      539.63282     -97573.172      196.41061      197.17874      671.82873    
     17400  -98093.487      536.25689     -97557.23       196.38997      197.16061      672.1379     
     17500  -98075.26       535.93528     -97539.325      196.37028      197.1417       672.44707    
     17600  -98058.787      538.98233     -97519.805      196.35099      197.12351      672.75624    
     17700  -98027.931      527.76186     -97500.169      196.33076      197.1065       673.06541    
     17800  -98015.756      535.90905     -97479.847      196.3105       197.0907       673.37459    
     17900  -97997.856      537.54033     -97460.316      196.29088      197.07454      673.68376    
     18000  -97979.664      533.73611     -97445.928      196.27296      197.05749      673.99293    
     18100  -97965.164      531.46082     -97433.703      196.25592      197.04021      674.3021     
     18200  -97946.5        530.48736     -97416.013      196.23861      197.02366      674.61127    
     18300  -97927.782      538.39106     -97389.39       196.22081      197.00863      674.92044    
     18400  -97905.14       540.70943     -97364.43       196.20266      196.99441      675.22961    
     18500  -97883.81       535.08978     -97348.72       196.18513      196.9801       675.53878    
     18600  -97871.975      536.18094     -97335.794      196.16828      196.96567      675.84795    
     18700  -97853.207      534.10112     -97319.106      196.15234      196.95108      676.15712    
     18800  -97837.924      538.58567     -97299.338      196.13704      196.93646      676.4663     
     18900  -97811.433      533.25362     -97278.179      196.12185      196.92226      676.77547    
     19000  -97793.261      535.6364      -97257.624      196.10649      196.90883      677.08464    
     19100  -97771.891      533.93128     -97237.96       196.09069      196.89568      677.39381    
     19200  -97756.47       538.29617     -97218.174      196.07512      196.88383      677.70298    
     19300  -97730.395      533.99124     -97196.403      196.059        196.87133      678.01215    
     19400  -97711.365      541.45569     -97169.91       196.04435      196.85919      678.32132    
     19500  -97688.624      539.29132     -97149.333      196.03002      196.84547      678.63049    
     19600  -97669.844      531.90129     -97137.943      196.01701      196.83212      678.93966    
     19700  -97654.033      530.93298     -97123.1        196.0031       196.81831      679.24884    
     19800  -97634.375      532.61254     -97101.762      195.98928      196.80605      679.55801    
     19900  -97612.843      535.23235     -97077.611      195.97451      196.79406      679.86718    
     20000  -97589.212      536.75488     -97052.457      195.95966      196.7832       680.17635    
     20100  -97566.109      539.70039     -97026.409      195.94482      196.77191      680.48552    
     20200  -97548.73       541.73161     -97006.998      195.93116      196.7602       680.79469    
     20300  -97535.753      538.38254     -96997.371      195.91853      196.74705      681.10386    
     20400  -97513.78       531.98577     -96981.794      195.90722      196.73349      681.41303    
     20500  -97493.012      531.13734     -96961.874      195.89524      196.72025      681.7222     
     20600  -97472.358      535.90371     -96936.454      195.88171      196.70915      682.03137    
     20700  -97454.356      545.12376     -96909.233      195.86718      196.69873      682.34055    
     20800  -97427.71       539.26309     -96888.447      195.85328      196.68796      682.64972    
     20900  -97415.024      535.07281     -96879.951      195.84046      196.67624      682.95889    
     21000  -97392.497      531.25223     -96861.245      195.82838      196.66388      683.26806    
     21100  -97370.463      534.47967     -96835.984      195.81593      196.65172      683.57723    
     21200  -97344.673      534.47104     -96810.202      195.80281      196.64065      683.8864     
     21300  -97324.831      536.95695     -96787.874      195.78952      196.62952      684.19557    
     21400  -97304.96       532.17484     -96772.785      195.77712      196.61813      684.50474    
     21500  -97286.555      527.27102     -96759.284      195.76491      196.60577      684.81391    
     21600  -97264.673      529.60507     -96735.068      195.75315      196.59358      685.12309    
     21700  -97241.395      533.8953      -96707.5        195.74028      196.5823       685.43226    
     21800  -97217.741      533.1701      -96684.57       195.72726      196.57163      685.74143    
     21900  -97201.305      538.3071      -96662.998      195.71411      196.56056      686.0506     
     22000  -97176.333      534.51506     -96641.817      195.70125      196.54903      686.35977    
     22100  -97153.205      536.3643      -96616.841      195.68921      196.53691      686.66894    
     22200  -97132.869      541.82078     -96591.048      195.67734      196.52432      686.97811    
     22300  -97109.142      536.91043     -96572.231      195.66529      196.51202      687.28728    
     22400  -97094.277      535.50879     -96558.769      195.65244      196.49928      687.59645    
     22500  -97069.984      529.5883      -96540.396      195.63967      196.48746      687.90563    
     22600  -97055.718      539.56156     -96516.156      195.62656      196.47513      688.2148     
     22700  -97028.271      537.1313      -96491.139      195.61369      196.4631       688.52397    
     22800  -97007.158      537.98716     -96469.171      195.60062      196.45053      688.83314    
     22900  -96985.82       538.20741     -96447.612      195.58813      196.43809      689.14231    
     23000  -96961.156      534.67918     -96426.477      195.57482      196.4254       689.45148    
     23100  -96938.297      534.03838     -96404.258      195.56192      196.41349      689.76065    
     23200  -96913.153      536.60592     -96376.547      195.54894      196.40056      690.06982    
     23300  -96891.789      540.54575     -96351.243      195.5371       196.38736      690.37899    
     23400  -96869.141      534.39453     -96334.747      195.52476      196.37335      690.68816    
     23500  -96853.66       534.77496     -96318.885      195.51217      196.36102      690.99734    
     23600  -96828.409      532.0456      -96296.363      195.49788      196.34884      691.30651    
     23700  -96801.778      532.64214     -96269.136      195.48423      196.33731      691.61568    
     23800  -96779.936      537.59196     -96242.344      195.47017      196.32444      691.92485    
     23900  -96755.293      535.29174     -96220.001      195.45742      196.31198      692.23402    
     24000  -96735.793      537.13821     -96198.655      195.44357      196.2985       692.54319    
     24100  -96715.309      537.34642     -96177.962      195.43081      196.28571      692.85236    
     24200  -96689.019      531.29189     -96157.727      195.41748      196.27086      693.16153    
     24300  -96664.589      527.54841     -96137.041      195.40559      196.25708      693.4707     
     24400  -96646.914      536.14316     -96110.77       195.39152      196.24287      693.77988    
     24500  -96619.019      538.2326      -96080.787      195.37719      196.23148      694.08905    
     24600  -96598.811      542.27338     -96056.538      195.36093      196.21922      694.39822    
     24700  -96572.601      533.30832     -96039.293      195.347        196.20703      694.70739    
     24800  -96551.437      526.56141     -96024.875      195.33324      196.19208      695.01656    
     24900  -96528.944      528.04884     -96000.895      195.32101      196.17807      695.32573    
     25000  -96507.588      534.66503     -95972.923      195.30682      196.16349      695.6349     
     25100  -96479.076      534.73524     -95944.341      195.2932       196.15069      695.94407    
     25200  -96456.789      537.93699     -95918.852      195.27856      196.1368       696.25324    
     25300  -96435.615      538.11945     -95897.496      195.26447      196.12363      696.56242    
     25400  -96414.365      529.30969     -95885.055      195.24922      196.10992      696.87159    
     25500  -96394.225      531.85751     -95862.367      195.23391      196.09713      697.18076    
     25600  -96365.601      533.51228     -95832.088      195.21845      196.08397      697.48993    
     25700  -96343.741      539.61774     -95804.124      195.20342      196.07031      697.7991     
     25800  -96314.03       534.96184     -95779.068      195.1888       196.05579      698.10827    
     25900  -96293.968      538.34535     -95755.623      195.17432      196.04067      698.41744    
     26000  -96270.05       534.1912      -95735.859      195.15999      196.02544      698.72661    
     26100  -96248.826      530.31615     -95718.51       195.14507      196.01063      699.03578    
     26200  -96224.736      532.30592     -95692.431      195.12943      195.99602      699.34495    
     26300  -96193.347      533.32811     -95660.019      195.11377      195.98181      699.65413    
     26400  -96171.455      537.04607     -95634.409      195.09778      195.96713      699.9633     
     26500  -96146.415      533.86783     -95612.548      195.08208      195.95275      700.27247    
     26600  -96124.421      532.28574     -95592.135      195.06596      195.93749      700.58164    
     26700  -96102.594      527.7256      -95574.869      195.05011      195.92268      700.89081    
     26800  -96079.588      529.97086     -95549.617      195.03384      195.90705      701.19998    
     26900  -96050.817      535.57247     -95515.244      195.01807      195.89164      701.50915    
     27000  -96023.955      535.32396     -95488.631      195.00177      195.87558      701.81832    
     27100  -96000.056      534.66827     -95465.388      194.98557      195.85996      702.12749    
     27200  -95980.788      534.72533     -95446.063      194.96903      195.84356      702.43667    
     27300  -95956.791      529.27768     -95427.514      194.95302      195.82754      702.74584    
     27400  -95933.636      532.94061     -95400.695      194.93646      195.81085      703.05501    
     27500  -95905.564      539.80446     -95365.759      194.91971      195.79527      703.36418    
     27600  -95870.936      531.52055     -95339.415      194.90136      195.78021      703.67335    
     27700  -95856.633      539.43031     -95317.203      194.88343      195.76526      703.98252    
     27800  -95827.367      528.28322     -95299.084      194.86607      195.74881      704.29169    
     27900  -95804.602      526.85233     -95277.75       194.84995      195.73125      704.60086    
     28000  -95781.258      536.19798     -95245.06       194.83367      195.71335      704.91003    
     28100  -95751.533      538.22867     -95213.305      194.81693      195.69594      705.2192     
     28200  -95727.031      539.15856     -95187.872      194.79917      195.67853      705.52838    
     28300  -95701.663      534.13347     -95167.529      194.78115      195.6619       705.83755    
     28400  -95678.638      529.56623     -95149.072      194.76172      195.64545      706.14672    
     28500  -95656.869      532.44649     -95124.422      194.74286      195.62862      706.45589    
     28600  -95625.546      537.79156     -95087.754      194.72497      195.61045      706.76506    
     28700  -95603.509      543.47524     -95060.034      194.70745      195.59157      707.07423    
     28800  -95576.439      536.22779     -95040.211      194.68971      195.57252      707.3834     
     28900  -95554.484      533.93942     -95020.545      194.67147      195.55397      707.69257    
     29000  -95528.955      533.00476     -94995.95       194.65228      195.53544      708.00174    
     29100  -95504.915      539.76822     -94965.147      194.63321      195.51742      708.31092    
     29200  -95468.248      537.13555     -94931.112      194.61422      195.49922      708.62009    
     29300  -95451.371      542.44964     -94908.921      194.59485      195.48035      708.92926    
     29400  -95424.344      534.49665     -94889.847      194.57647      195.46164      709.23843    
     29500  -95400.047      533.22105     -94866.826      194.55721      195.44183      709.5476     
     29600  -95376.2        535.58065     -94840.619      194.53855      195.42299      709.85677    
     29700  -95346.339      534.70852     -94811.63       194.51914      195.40349      710.16594    
     29800  -95314.658      540.19077     -94774.467      194.49993      195.38467      710.47511    
     29900  -95289.264      538.23407     -94751.03       194.47985      195.36499      710.78428    
     30000  -95261.796      529.47715     -94732.319      194.46035      195.34608      711.09346    
     30100  -95241.868      531.52149     -94710.346      194.44021      195.32594      711.40263    
     30200  -95219.817      533.89273     -94685.924      194.4208       195.30656      711.7118     
     30300  -95190.444      534.46955     -94655.975      194.40037      195.28648      712.02097    
     30400  -95162.496      542.21263     -94620.283      194.38052      195.26722      712.33014    
     30500  -95133.554      536.95224     -94596.602      194.36026      195.24651      712.63931    
     30600  -95113.446      535.96172     -94577.484      194.34112      195.22611      712.94848    
     30700  -95089.434      534.39048     -94555.044      194.32096      195.20496      713.25765    
     30800  -95063.184      534.1904      -94528.994      194.30081      195.18612      713.56682    
     30900  -95035.79       536.78589     -94499.004      194.27831      195.16689      713.87599    
     31000  -95002.672      538.62984     -94464.042      194.25751      195.1487       714.18517    
     31100  -94977.033      544.51434     -94432.519      194.23689      195.1277       714.49434    
     31200  -94950.707      540.07053     -94410.636      194.21842      195.1066       714.80351    
     31300  -94919.976      529.52735     -94390.448      194.19847      195.08478      715.11268    
     31400  -94900.958      532.74846     -94368.21       194.17778      195.06528      715.42185    
     31500  -94877.051      534.38375     -94342.667      194.15521      195.04588      715.73102    
     31600  -94842.581      533.65955     -94308.922      194.13375      195.02703      716.04019    
     31700  -94815.228      538.47257     -94276.755      194.11225      195.00632      716.34936    
     31800  -94788.837      534.62451     -94254.213      194.09262      194.98528      716.65853    
     31900  -94766.454      533.25216     -94233.202      194.07184      194.96333      716.96771    
     32000  -94747.274      539.131       -94208.143      194.05128      194.94336      717.27688    
     32100  -94712.923      532.38296     -94180.54       194.0285       194.92295      717.58605    
     32200  -94685.909      533.48829     -94152.421      194.00717      194.90378      717.89522    
     32300  -94656.024      531.04366     -94124.981      193.98521      194.88223      718.20439    
     32400  -94633.848      535.86763     -94097.981      193.966        194.86105      718.51356    
     32500  -94605.337      535.78826     -94069.549      193.94484      194.83858      718.82273    
     32600  -94570.02       536.73333     -94033.286      193.92364      194.81867      719.1319     
     32700  -94548.481      543.35695     -94005.124      193.90021      194.79838      719.44107    
     32800  -94521.314      535.75512     -93985.559      193.87817      194.77864      719.75025    
     32900  -94502.738      539.69833     -93963.04       193.85671      194.75661      720.05942    
     33000  -94467.879      531.74427     -93936.134      193.83649      194.73459      720.36859    
     33100  -94442.213      535.51464     -93906.698      193.8149       194.71303      720.67776    
     33200  -94408.967      534.93392     -93874.033      193.79254      194.69298      720.98693    
     33300  -94380.039      539.86245     -93840.177      193.76914      194.67304      721.2961     
     33400  -94357.132      538.65141     -93818.48       193.74745      194.65268      721.60527    
     33500  -94330.36       531.77686     -93798.583      193.72668      194.62969      721.91444    
     33600  -94308.747      536.39222     -93772.355      193.70773      194.60731      722.22361    
     33700  -94275.036      532.10338     -93742.932      193.68583      194.58465      722.53278    
     33800  -94243.362      533.15613     -93710.206      193.66402      194.5657       722.84196    
     33900  -94216.665      538.71443     -93677.95       193.63929      194.54553      723.15113    
     34000  -94191.458      540.09697     -93651.361      193.61726      194.52651      723.4603     
     34100  -94168.311      534.1019      -93634.21       193.59529      194.50353      723.76947    
     34200  -94142.386      532.55917     -93609.826      193.57612      194.48062      724.07864    
     34300  -94109.781      531.42019     -93578.361      193.55502      194.45735      724.38781    
     34400  -94083.454      539.1679      -93544.286      193.5332       194.43655      724.69698    
     34500  -94052.777      536.30877     -93516.468      193.51006      194.41564      725.00615    
     34600  -94023.92       532.42342     -93491.497      193.48781      194.39459      725.31532    
     34700  -94003.981      538.34325     -93465.638      193.46672      194.37191      725.6245     
     34800  -93972.91       533.90236     -93439.008      193.44603      194.34906      725.93367    
     34900  -93944.843      533.91231     -93410.931      193.42465      194.32725      726.24284    
     35000  -93914.78       536.69594     -93378.084      193.40143      194.30621      726.55201    
     35100  -93885.714      541.80884     -93343.905      193.37921      194.2862       726.86118    
     35200  -93859.462      539.10387     -93320.358      193.35696      194.26405      727.17035    
     35300  -93833.736      533.19929     -93300.537      193.33699      194.24147      727.47952    
     35400  -93806.089      531.98116     -93274.108      193.31662      194.21812      727.78869    
     35500  -93773.367      529.4355      -93243.931      193.29612      194.19603      728.09786    
     35600  -93747.555      538.21941     -93209.335      193.27428      194.17501      728.40704    
     35700  -93717.495      542.83619     -93174.659      193.25171      194.15435      728.71621    
     35800  -93690.74       541.39335     -93149.346      193.23022      194.13385      729.02538    
     35900  -93664.305      539.1977      -93125.107      193.20878      194.11132      729.33455    
     36000  -93633.329      531.84483     -93101.484      193.18886      194.08998      729.64372    
     36100  -93610.656      534.30996     -93076.346      193.16697      194.06794      729.95289    
     36200  -93578.431      532.1514      -93046.279      193.14582      194.04797      730.26206    
     36300  -93548.649      540.33065     -93008.319      193.12331      194.02729      730.57123    
     36400  -93514.745      534.90416     -92979.84       193.10269      194.0069       730.8804     
     36500  -93495.369      536.77092     -92958.598      193.08257      193.98419      731.18957    
     36600  -93467.167      532.45845     -92934.709      193.06412      193.96196      731.49875    
     36700  -93437.391      532.19443     -92905.197      193.0444       193.93969      731.80792    
     36800  -93414.048      540.36267     -92873.686      193.02334      193.92012      732.11709    
     36900  -93377.06       534.21054     -92842.849      193.0006       193.90192      732.42626    
     37000  -93348.054      533.87949     -92814.174      192.97824      193.88351      732.73543    
     37100  -93323.517      537.28665     -92786.231      192.95795      193.86359      733.0446     
     37200  -93296.516      537.58538     -92758.93       192.93922      193.84162      733.35377    
     37300  -93266.342      534.43441     -92731.907      192.92086      193.81998      733.66294    
     37400  -93232.337      530.51003     -92701.827      192.90079      193.7998       733.97211    
     37500  -93204.703      537.61247     -92667.09       192.87949      193.78158      734.28129    
     37600  -93175.517      539.38656     -92636.13       192.85833      193.7629       734.59046    
     37700  -93152.873      538.33979     -92614.533      192.83878      193.74265      734.89963    
     37800  -93126.578      534.25445     -92592.323      192.82087      193.72156      735.2088     
     37900  -93093.591      531.11883     -92562.472      192.80178      193.70116      735.51797    
     38000  -93062.947      533.1666      -92529.78       192.78112      193.6831       735.82714    
     38100  -93030.87       534.82334     -92496.046      192.75989      193.66558      736.13631    
     38200  -93003.854      538.94644     -92464.908      192.74018      193.64673      736.44548    
     38300  -92976.912      543.87509     -92433.037      192.722        193.62599      736.75465    
     38400  -92944.976      536.43253     -92408.543      192.70486      193.6054       737.06382    
     38500  -92918.456      531.20043     -92387.255      192.68553      193.58553      737.373      
     38600  -92892.823      532.69403     -92360.129      192.66533      193.56817      737.68217    
     38700  -92859.924      533.40365     -92326.521      192.64407      193.55057      737.99134    
     38800  -92830.361      539.36877     -92290.992      192.62496      193.53315      738.30051    
     38900  -92798.037      535.89146     -92262.146      192.60679      193.51266      738.60968    
     39000  -92774.752      537.68017     -92237.072      192.59024      193.49273      738.91885    
     39100  -92746.195      536.56505     -92209.63       192.5717       193.47299      739.22802    
     39200  -92711.803      530.2656      -92181.537      192.5527       193.45572      739.53719    
     39300  -92690.031      536.71625     -92153.315      192.53266      193.43823      739.84636    
     39400  -92656.508      533.21499     -92123.293      192.51398      193.4207       740.15554    
     39500  -92624.948      536.78373     -92088.164      192.49649      193.40171      740.46471    
     39600  -92593.089      538.20977     -92054.879      192.47939      193.38241      740.77388    
     39700  -92567.526      537.1869      -92030.339      192.46163      193.36421      741.08305    
     39800  -92541.195      530.97013     -92010.225      192.44254      193.34664      741.39222    
     39900  -92512.577      531.41279     -91981.164      192.42389      193.32977      741.70139    
     40000  -92481.144      533.811       -91947.333      192.40517      193.31151      742.01056    
     40100  -92450.781      536.44258     -91914.338      192.38892      193.29321      742.31973    
     40200  -92420.967      536.70281     -91884.265      192.37143      193.27347      742.6289     
     40300  -92390.359      530.79322     -91859.566      192.35397      193.25609      742.93808    
     40400  -92372.251      532.26149     -91839.99       192.33446      193.23894      743.24725    
     40500  -92337.914      529.92664     -91807.987      192.31646      193.22238      743.55642    
     40600  -92305.831      534.73688     -91771.094      192.29887      193.20356      743.86559    
     40700  -92274.472      535.78644     -91738.685      192.28305      193.18462      744.17476    
     40800  -92246.88       538.34425     -91708.536      192.26643      193.16586      744.48393    
     40900  -92215.271      531.89179     -91683.38       192.24848      193.14831      744.7931     
     41000  -92190.006      526.5567      -91663.449      192.2305       193.13183      745.10227    
     41100  -92164.216      532.38084     -91631.836      192.21264      193.11424      745.41144    
     41200  -92131.597      535.08177     -91596.515      192.19632      193.09675      745.72061    
     41300  -92095.946      532.33783     -91563.608      192.17949      193.07837      746.02979    
     41400  -92071.932      539.3994      -91532.533      192.16263      193.06169      746.33896    
     41500  -92038.646      537.03141     -91501.615      192.14464      193.04495      746.64813    
     41600  -92010.434      538.75069     -91471.683      192.12791      193.02801      746.9573     
     41700  -91978.682      534.887       -91443.795      192.11218      193.0096       747.26647    
     41800  -91949.171      531.706       -91417.465      192.09704      192.99108      747.57564    
     41900  -91919.109      529.87032     -91389.238      192.07999      192.97417      747.88481    
     42000  -91893.352      538.24244     -91355.11       192.06115      192.95958      748.19398    
     42100  -91856.153      537.88443     -91318.268      192.04246      192.94499      748.50315    
     42200  -91827.431      537.81601     -91289.615      192.02592      192.92831      748.81233    
     42300  -91802.737      534.74714     -91267.99       192.01141      192.90966      749.1215     
     42400  -91775.535      536.00804     -91239.527      191.99775      192.89081      749.43067    
     42500  -91740.594      532.76533     -91207.829      191.98239      192.8734       749.73984    
     42600  -91713.736      538.99284     -91174.743      191.96527      192.85836      750.04901    
     42700  -91678.726      538.33926     -91140.386      191.94729      192.84422      750.35818    
     42800  -91645.279      538.73205     -91106.547      191.93063      192.82881      750.66735    
     42900  -91618.631      536.99101     -91081.64       191.91549      192.81198      750.97652    
     43000  -91595.539      535.2487      -91060.29       191.90035      192.79509      751.28569    
     43100  -91564.828      533.29878     -91031.53       191.88426      192.78019      751.59487    
     43200  -91533.09       534.54035     -90998.55       191.86609      192.76593      751.90404    
     43300  -91495.03       534.52286     -90960.507      191.84966      192.75209      752.21321    
     43400  -91471.338      543.85698     -90927.481      191.83489      192.73466      752.52238    
     43500  -91440.082      537.93568     -90902.146      191.82266      192.71652      752.83155    
     43600  -91409.548      534.66723     -90874.881      191.80899      192.69828      753.14072    
     43700  -91387.976      540.92374     -90847.052      191.79321      192.68351      753.44989    
     43800  -91350.218      530.465       -90819.753      191.77483      192.67067      753.75906    
     43900  -91324.471      533.22432     -90791.247      191.75708      192.65779      754.06823    
     44000  -91288.958      531.85948     -90757.098      191.7417       192.64227      754.3774     
     44100  -91258.228      538.67297     -90719.555      191.72879      192.62448      754.68658    
     44200  -91226.271      536.02509     -90690.246      191.71529      192.60721      754.99575    
     44300  -91204.637      536.6387      -90667.998      191.69934      192.59226      755.30492    
     44400  -91172.86       532.38808     -90640.472      191.68175      192.57997      755.61409    
     44500  -91144.225      536.04258     -90608.182      191.66365      192.56634      755.92326    
     44600  -91107.182      533.21952     -90573.962      191.64948      192.55181      756.23243    
     44700  -91079.267      538.89378     -90540.373      191.63534      192.53351      756.5416     
     44800  -91049.71       534.81187     -90514.898      191.62306      192.51735      756.85077    
     44900  -91026.653      533.26984     -90493.384      191.60725      192.50144      757.15994    
     45000  -90994.88       532.56009     -90462.32       191.59119      192.48865      757.46912    
     45100  -90961.711      536.5161      -90425.195      191.57435      192.47445      757.77829    
     45200  -90925.778      534.84422     -90390.933      191.56033      192.45945      758.08746    
     45300  -90898.93       537.39505     -90361.535      191.54637      192.44239      758.39663    
     45400  -90874.937      532.69134     -90342.246      191.53232      192.42723      758.7058     
     45500  -90844.426      530.00649     -90314.42       191.51578      192.41339      759.01497    
     45600  -90809.572      532.49103     -90277.081      191.49852      192.40082      759.32414    
     45700  -90773.383      532.61064     -90240.773      191.48282      192.38678      759.63331    
     45800  -90743.319      534.86664     -90208.452      191.46908      192.36998      759.94248    
     45900  -90722.421      541.79334     -90180.628      191.45713      192.35252      760.25165    
     46000  -90690.646      530.55022     -90160.096      191.44319      192.33507      760.56083    
     46100  -90655.891      526.27231     -90129.619      191.42839      192.32104      760.87       
     46200  -90629.035      535.47143     -90093.563      191.41115      192.30664      761.17917    
     46300  -90591.083      531.87986     -90059.203      191.39612      192.29302      761.48834    
     46400  -90567.326      539.47978     -90027.846      191.3809       192.27653      761.79751    
     46500  -90531.352      532.77708     -89998.575      191.36737      192.26088      762.10668    
     46600  -90503.733      528.47579     -89975.257      191.35195      192.245        762.41585    
     46700  -90479.304      527.05654     -89952.248      191.33653      192.23081      762.72502    
     46800  -90449.39       533.19291     -89916.198      191.32084      192.21567      763.03419    
     46900  -90410.864      531.46799     -89879.396      191.30671      192.19953      763.34337    
     47000  -90382.135      536.90596     -89845.23       191.29347      192.18258      763.65254    
     47100  -90356.302      542.52536     -89813.776      191.27957      192.16612      763.96171    
     47200  -90321.874      532.84238     -89789.031      191.26424      192.15148      764.27088    
     47300  -90296.933      532.3005      -89764.632      191.24761      192.13735      764.58005    
     47400  -90257.4        527.16209     -89730.238      191.23239      192.12315      764.88922    
     47500  -90225.85       532.69638     -89693.153      191.21769      192.10694      765.19839    
     47600  -90197.628      536.68258     -89660.945      191.20413      192.09103      765.50756    
     47700  -90166.358      534.56137     -89631.797      191.1892       192.07486      765.81673    
     47800  -90140.491      535.80543     -89604.686      191.17432      192.06031      766.12591    
     47900  -90110.747      530.58503     -89580.162      191.15834      192.04515      766.43508    
     48000  -90083.793      527.184       -89556.609      191.14412      192.03086      766.74425    
     48100  -90051.436      522.47399     -89528.962      191.12894      192.01424      767.05342    
     48200  -90017.769      531.46073     -89486.309      191.11581      191.99933      767.36259    
     48300  -89983.077      533.79099     -89449.286      191.10067      191.98294      767.67176    
     48400  -89954.987      539.53145     -89415.456      191.08628      191.96879      767.98093    
     48500  -89921.161      535.45461     -89385.706      191.07041      191.95413      768.2901     
     48600  -89892.822      531.4249      -89361.397      191.05473      191.94038      768.59927    
     48700  -89868.027      533.94883     -89334.078      191.03871      191.92616      768.90844    
     48800  -89829.79       530.49732     -89299.292      191.02439      191.91163      769.21762    
     48900  -89797.24       535.43282     -89261.807      191.01031      191.89517      769.52679    
     49000  -89764.984      536.40224     -89228.582      190.99717      191.87904      769.83596    
     49100  -89737.749      538.73433     -89199.015      190.98261      191.86386      770.14513    
     49200  -89705.529      533.54786     -89171.982      190.96667      191.84988      770.4543     
     49300  -89679.99       534.12532     -89145.864      190.95087      191.83602      770.76347    
     49400  -89645.332      529.42914     -89115.903      190.93559      191.82108      771.07264    
     49500  -89614.517      534.09541     -89080.421      190.92105      191.80607      771.38181    
     49600  -89575.209      534.58074     -89040.628      190.90597      191.79087      771.69098    
     49700  -89553.103      543.09168     -89010.012      190.89041      191.77655      772.00016    
     49800  -89526.767      539.97924     -88986.787      190.87481      191.76218      772.30933    
     49900  -89488.722      530.76798     -88957.954      190.85982      191.74687      772.6185     
     50000  -89465.009      538.29588     -88926.713      190.84615      191.7308       772.92767    
     50100  -89431.243      535.45088     -88895.792      190.83201      191.71439      773.23684    
     50200  -89398.948      532.20532     -88866.743      190.81675      191.69974      773.54601    
     50300  -89376.352      538.76456     -88837.587      190.79989      191.68609      773.85518    
     50400  -89339.773      532.7278      -88807.045      190.7836       191.67248      774.16435    
     50500  -89305.288      535.10614     -88770.182      190.7683       191.65746      774.47352    
     50600  -89274.371      542.33692     -88732.034      190.75343      191.6419       774.7827     
     50700  -89243.203      540.10758     -88703.095      190.73831      191.62656      775.09187    
     50800  -89210.463      530.69299     -88679.77       190.72273      191.61208      775.40104    
     50900  -89184.428      536.28613     -88648.142      190.70702      191.59734      775.71021    
     51000  -89148.551      533.33964     -88615.211      190.69191      191.58142      776.01938    
     51100  -89119.513      537.42551     -88582.087      190.67805      191.56547      776.32855    
     51200  -89090.529      537.93952     -88552.59       190.66301      191.54857      776.63772    
     51300  -89062.724      535.30348     -88527.42       190.64863      191.53377      776.94689    
     51400  -89028.283      531.06515     -88497.218      190.6313       191.518        777.25606    
     51500  -88992.965      534.09224     -88458.872      190.61589      191.50473      777.56523    
     51600  -88959.182      540.07912     -88419.103      190.59879      191.4882       777.87441    
     51700  -88931.676      542.17441     -88389.502      190.58484      191.47325      778.18358    
     51800  -88901.544      540.1832      -88361.361      190.56856      191.45647      778.49275    
     51900  -88868.068      534.90674     -88333.161      190.5532       191.44124      778.80192    
     52000  -88834.931      529.41251     -88305.519      190.53748      191.42485      779.11109    
     52100  -88808.276      532.58736     -88275.689      190.5219       191.40855      779.42026    
     52200  -88775.725      532.06534     -88243.659      190.50672      191.3923       779.72943    
     52300  -88748.787      541.18174     -88207.605      190.49091      191.37522      780.0386     
     52400  -88711.791      540.36813     -88171.423      190.47597      191.35917      780.34777    
     52500  -88680.858      537.31849     -88143.539      190.45954      191.34229      780.65695    
     52600  -88653.846      535.07593     -88118.77       190.44339      191.32692      780.96612    
     52700  -88623.29       535.04821     -88088.241      190.42621      191.31129      781.27529    
     52800  -88591.766      535.73757     -88056.028      190.40993      191.29554      781.58446    
     52900  -88559.516      535.21186     -88024.304      190.39466      191.2787       781.89363    
     53000  -88529.942      534.17403     -87995.768      190.37975      191.26096      782.2028     
     53100  -88501.188      535.52357     -87965.664      190.36479      191.24396      782.51197    
     53200  -88465.206      535.05292     -87930.153      190.34813      191.22785      782.82114    
     53300  -88427.969      536.55263     -87891.416      190.33092      191.21235      783.13031    
     53400  -88398.344      540.22677     -87858.117      190.31403      191.1968       783.43949    
     53500  -88371.078      534.93997     -87836.138      190.29816      191.17996      783.74866    
     53600  -88341.06       534.63048     -87806.429      190.28332      191.16269      784.05783    
     53700  -88312.699      539.34299     -87773.356      190.26735      191.14555      784.367      
     53800  -88275.105      535.80172     -87739.303      190.25082      191.12959      784.67617    
     53900  -88242.724      534.60654     -87708.117      190.23381      191.11396      784.98534    
     54000  -88215.63       533.52153     -87682.108      190.21748      191.09749      785.29451    
     54100  -88180.82       528.46516     -87652.355      190.20208      191.08045      785.60368    
     54200  -88150.214      533.99495     -87616.219      190.18634      191.0635       785.91285    
     54300  -88113.465      540.16388     -87573.301      190.16983      191.04762      786.22202    
     54400  -88082.35       543.82182     -87538.528      190.15236      191.03213      786.5312     
     54500  -88051.979      539.99407     -87511.985      190.1356       191.01646      786.84037    
     54600  -88023.158      539.44738     -87483.711      190.11957      190.99955      787.14954    
     54700  -87992.54       535.90347     -87456.637      190.10411      190.98222      787.45871    
     54800  -87957.59       530.15111     -87427.438      190.08853      190.96535      787.76788    
     54900  -87930.849      534.93953     -87395.909      190.07193      190.94862      788.07705    
     55000  -87899.553      536.00247     -87363.55       190.05491      190.9327       788.38622    
     55100  -87863.003      530.72251     -87332.281      190.03795      190.91666      788.69539    
     55200  -87837.119      535.49615     -87301.623      190.02083      190.90023      789.00456    
     55300  -87800.621      531.01589     -87269.605      190.00448      190.8839       789.31374    
     55400  -87768.409      532.43598     -87235.973      189.98767      190.86686      789.62291    
     55500  -87737.815      536.71829     -87201.097      189.97103      190.85072      789.93208    
     55600  -87702.657      534.24318     -87168.414      189.95365      190.83405      790.24125    
     55700  -87679.646      539.20277     -87140.443      189.93733      190.81799      790.55042    
     55800  -87643.121      532.04381     -87111.077      189.92046      190.80009      790.85959    
     55900  -87611.782      533.93364     -87077.848      189.90481      190.78378      791.16876    
     56000  -87575.033      535.86238     -87039.171      189.8871       190.76628      791.47793    
     56100  -87536.131      536.88145     -86999.25       189.87099      190.7505       791.7871     
     56200  -87509.64       539.47783     -86970.162      189.85332      190.73289      792.09627    
     56300  -87480.001      535.68946     -86944.312      189.83696      190.71703      792.40545    
     56400  -87449.548      535.17722     -86914.371      189.81886      190.7001       792.71462    
     56500  -87418.659      535.15342     -86883.506      189.8016       190.68419      793.02379    
     56600  -87386.077      532.4458      -86853.632      189.78462      190.66691      793.33296    
     56700  -87355.259      530.71285     -86824.546      189.76839      190.64879      793.64213    
     56800  -87322.939      527.02508     -86795.914      189.75276      190.63087      793.9513     
     56900  -87292.654      529.68714     -86762.967      189.73536      190.61299      794.26047    
     57000  -87255.751      536.34588     -86719.405      189.71828      190.59716      794.56964    
     57100  -87226.186      544.97858     -86681.207      189.69954      190.57954      794.87881    
     57200  -87189.421      538.43634     -86650.985      189.68344      190.56329      795.18799    
     57300  -87155.682      533.45573     -86622.226      189.66522      190.54485      795.49716    
     57400  -87129.301      539.44616     -86589.855      189.64873      190.52907      795.80633    
     57500  -87095.827      536.56281     -86559.264      189.62961      190.51125      796.1155     
     57600  -87061.592      532.55702     -86529.035      189.61313      190.49469      796.42467    
     57700  -87029.376      531.47677     -86497.899      189.59645      190.47537      796.73384    
     57800  -86998.58       529.4668      -86469.114      189.58074      190.45639      797.04301    
     57900  -86973.091      530.06671     -86443.025      189.56393      190.43776      797.35218    
     58000  -86939.072      535.51398     -86403.558      189.54594      190.42053      797.66135    
     58100  -86897.231      534.63833     -86362.593      189.52688      190.40387      797.97053    
     58200  -86865.809      538.44216     -86327.367      189.50901      190.38697      798.2797     
     58300  -86829.794      533.70102     -86296.093      189.49182      190.368        798.58887    
     58400  -86803.144      538.9444      -86264.199      189.47588      190.34953      798.89804    
     58500  -86770.933      539.24504     -86231.688      189.45795      190.33093      799.20721    
     58600  -86735.858      535.13609     -86200.722      189.44034      190.31428      799.51638    
     58700  -86708.636      538.52354     -86170.112      189.42226      190.29625      799.82555    
     58800  -86672.748      537.19721     -86135.551      189.40574      190.27744      800.13472    
     58900  -86635.753      534.88581     -86100.867      189.38994      190.25788      800.44389    
     59000  -86601.632      534.61626     -86067.015      189.37275      190.2396       800.75306    
     59100  -86569.393      535.12713     -86034.266      189.35373      190.22347      801.06224    
     59200  -86535.515      534.32082     -86001.195      189.33394      190.20748      801.37141    
     59300  -86500.221      532.15077     -85968.07       189.31608      190.19017      801.68058    
     59400  -86471.152      535.85019     -85935.302      189.29992      190.17034      801.98975    
     59500  -86438.61       533.94714     -85904.663      189.28497      190.15119      802.29892    
     59600  -86404.541      533.32237     -85871.219      189.26733      190.13232      802.60809    
     59700  -86369.263      533.75024     -85835.513      189.24921      190.1162       802.91726    
     59800  -86339.559      537.92793     -85801.631      189.23015      190.09934      803.22643    
     59900  -86304.846      534.2502      -85770.596      189.21283      190.08212      803.5356     
     60000  -86272.019      534.91528     -85737.104      189.1957       190.06388      803.84478    
     60100  -86244.328      542.6424      -85701.686      189.17803      190.04634      804.15395    
     60200  -86204.129      535.01011     -85669.119      189.15921      190.02948      804.46312    
     60300  -86176.371      538.9038      -85637.467      189.14115      190.01301      804.77229    
     60400  -86140.212      536.25704     -85603.955      189.12351      189.99487      805.08146    
     60500  -86103.328      535.29507     -85568.032      189.1079       189.97617      805.39063    
     60600  -86073.31       540.54341     -85532.767      189.09147      189.95616      805.6998     
     60700  -86035.292      535.14053     -85500.151      189.07485      189.93868      806.00897    
     60800  -86005.546      539.01265     -85466.534      189.05517      189.92181      806.31814    
     60900  -85967.642      536.39638     -85431.246      189.03644      189.90686      806.62732    
     61000  -85935.562      538.01094     -85397.551      189.01786      189.88929      806.93649    
     61100  -85900.213      536.2733      -85363.94       189.00135      189.87127      807.24566    
     61200  -85870.795      541.42473     -85329.37       188.98422      189.85286      807.55483    
     61300  -85831.019      537.73436     -85293.285      188.96653      189.8362       807.864      
     61400  -85799.117      539.81048     -85259.307      188.94759      189.81898      808.17317    
     61500  -85761.808      536.87237     -85224.936      188.93114      189.80179      808.48234    
     61600  -85731.678      540.61477     -85191.063      188.91401      189.78215      808.79151    
     61700  -85688.195      533.85282     -85154.342      188.89807      189.76452      809.10068    
     61800  -85656.682      537.76468     -85118.917      188.87978      189.74672      809.40985    
     61900  -85621.917      535.90243     -85086.015      188.86145      189.73082      809.71903    
     62000  -85586.513      535.67309     -85050.84       188.84216      189.71364      810.0282     
     62100  -85550.798      535.53517     -85015.263      188.82579      189.69626      810.33737    
     62200  -85520.025      538.637       -84981.388      188.80883      189.67642      810.64654    
     62300  -85480.512      534.27093     -84946.241      188.79282      189.65923      810.95571    
     62400  -85448.811      538.80264     -84910.009      188.77355      189.64177      811.26488    
     62500  -85407.26       533.84021     -84873.42       188.75556      189.62643      811.57405    
     62600  -85376.836      538.66119     -84838.175      188.73698      189.60814      811.88322    
     62700  -85336.917      534.73559     -84802.182      188.72171      189.59058      812.19239    
     62800  -85304.819      539.07539     -84765.744      188.70382      189.57078      812.50157    
     62900  -85267.515      537.12376     -84730.391      188.68763      189.5548       812.81074    
     63000  -85240.419      545.60892     -84694.81       188.66767      189.53685      813.11991    
     63100  -85194.929      537.40806     -84657.521      188.6511       189.52066      813.42908    
     63200  -85161.4        540.34326     -84621.057      188.63337      189.50053      813.73825    
     63300  -85123.791      538.86691     -84584.924      188.61862      189.48257      814.04742    
     63400  -85083.371      534.6425      -84548.729      188.59964      189.46331      814.35659    
     63500  -85051.587      539.99484     -84511.592      188.58275      189.44851      814.66576    
     63600  -85010.563      534.62804     -84475.935      188.56303      189.4296       814.97493    
     63700  -84978.014      538.24656     -84439.768      188.54818      189.41254      815.2841     
     63800  -84930.755      528.88626     -84401.869      188.53076      189.39198      815.59328    
     63900  -84901.166      537.18236     -84363.984      188.51476      189.37592      815.90245    
     64000  -84858.984      533.10424     -84325.88       188.49417      189.35881      816.21162    
     64100  -84827.13       538.05105     -84289.079      188.47667      189.34422      816.52079    
     64200  -84790.463      538.12526     -84252.338      188.45869      189.3251       816.82996    
     64300  -84754.876      539.63125     -84215.244      188.44453      189.30652      817.13913    
     64400  -84717.939      539.65448     -84178.284      188.428        189.28708      817.4483     
     64500  -84675.053      535.11711     -84139.936      188.41093      189.27067      817.75747    
     64600  -84637.327      536.34767     -84100.98       188.39246      189.25366      818.06664    
     64700  -84602.778      541.07228     -84061.706      188.37611      189.23675      818.37582    
     64800  -84559.331      536.6569      -84022.675      188.35954      189.21802      818.68499    
     64900  -84519.201      535.07525     -83984.126      188.34345      189.20099      818.99416    
     65000  -84487.399      541.80883     -83945.59       188.32458      189.18488      819.30333    
     65100  -84443.182      535.99493     -83907.187      188.30648      189.17054      819.6125     
     65200  -84410.503      542.56336     -83867.94       188.28849      189.15348      819.92167    
     65300  -84368.161      539.76158     -83828.4        188.27349      189.13582      820.23084    
     65400  -84327.958      539.34919     -83788.608      188.25764      189.11665      820.54001    
     65500  -84286.771      537.81226     -83748.958      188.24189      189.09966      820.84918    
     65600  -84250.342      540.68635     -83709.656      188.22439      189.08292      821.15836    
     65700  -84208.706      538.02998     -83670.676      188.20792      189.06655      821.46753    
     65800  -84165.609      535.50924     -83630.099      188.19164      189.04897      821.7767     
     65900  -84129.888      539.85872     -83590.029      188.17494      189.03266      822.08587    
     66000  -84089.046      539.6587      -83549.387      188.15688      189.01723      822.39504    
     66100  -84049.902      540.25561     -83509.646      188.13927      189.00241      822.70421    
     66200  -84007.133      538.25125     -83468.881      188.12236      188.98549      823.01338    
     66300  -83964.113      536.68726     -83427.425      188.10761      188.96842      823.32255    
     66400  -83918.821      532.71673     -83386.104      188.09172      188.95065      823.63172    
     66500  -83882.79       538.52154     -83344.269      188.07526      188.93488      823.94089    
     66600  -83840.272      537.01047     -83303.262      188.05787      188.91942      824.25007    
     66700  -83807.92       546.80359     -83261.116      188.04156      188.90291      824.55924    
     66800  -83760.181      540.0835      -83220.098      188.02649      188.88573      824.86841    
     66900  -83718.027      540.24767     -83177.779      188.01066      188.86838      825.17758    
     67000  -83672.811      536.11751     -83136.693      187.99397      188.85309      825.48675    
     67100  -83635.151      539.26481     -83095.886      187.97629      188.83801      825.79592    
     67200  -83590.378      536.45841     -83053.92       187.95995      188.82205      826.10509    
     67300  -83547.369      536.99041     -83010.379      187.94489      188.80493      826.41426    
     67400  -83499.461      532.66426     -82966.797      187.9296       188.78817      826.72343    
     67500  -83460.563      537.55189     -82923.011      187.91311      188.773        827.03261    
     67600  -83415.332      535.63626     -82879.695      187.8956       188.75809      827.34178    
     67700  -83373.017      538.31674     -82834.701      187.87986      188.74241      827.65095    
     67800  -83326.954      536.2753      -82790.678      187.86538      188.7244       827.96012    
     67900  -83284.32       537.75427     -82746.566      187.85078      188.70751      828.26929    
     68000  -83250.434      547.62192     -82702.812      187.83418      188.69199      828.57846    
     68100  -83205.933      544.56139     -82661.371      187.81768      188.67715      828.88763    
     68200  -83150.496      532.93        -82617.566      187.8014       188.66108      829.1968     
     68300  -83111.477      539.23859     -82572.238      187.7862       188.64531      829.50597    
     68400  -83066.424      538.97738     -82527.447      187.77001      188.62897      829.81515    
     68500  -83022.429      540.98904     -82481.44       187.75473      188.61352      830.12432    
     68600  -82973          536.3483      -82436.651      187.73898      188.59701      830.43349    
     68700  -82926.222      534.73044     -82391.492      187.72462      188.58132      830.74266    
     68800  -82890.936      543.47221     -82347.464      187.70854      188.56462      831.05183    
     68900  -82841.637      539.48833     -82302.148      187.69365      188.54996      831.361      
     69000  -82794.414      539.87418     -82254.54       187.67678      188.53404      831.67017    
     69100  -82747.413      538.65218     -82208.76       187.66199      188.51974      831.97934    
     69200  -82701.669      540.56843     -82161.101      187.64593      188.50348      832.28851    
     69300  -82654.961      540.61735     -82114.344      187.63191      188.48826      832.59768    
     69400  -82608.148      538.62961     -82069.519      187.61613      188.47201      832.90686    
     69500  -82564.583      542.53114     -82022.052      187.60135      188.45791      833.21603    
     69600  -82515.262      539.09832     -81976.163      187.58545      188.44217      833.5252     
     69700  -82468.892      541.22888     -81927.663      187.57205      188.42695      833.83437    
     69800  -82416.938      537.57967     -81879.358      187.55762      188.41013      834.14354    
     69900  -82369.813      540.74994     -81829.063      187.54284      188.39567      834.45271    
     70000  -82325.194      543.53495     -81781.659      187.52622      188.38185      834.76188    
     70100  -82274.563      541.20325     -81733.36       187.51079      188.36786      835.07105    
     70200  -82228.571      542.27345     -81686.297      187.4968       188.35195      835.38022    
     70300  -82182.603      545.89012     -81636.713      187.48293      188.33615      835.6894     
     70400  -82133.985      543.95825     -81590.026      187.4681       188.32196      835.99857    
     70500  -82086.693      544.70527     -81541.988      187.45178      188.30797      836.30774    
     70600  -82037.69       543.59265     -81494.098      187.43714      188.29458      836.61691    
     70700  -81985.974      541.08808     -81444.886      187.4225       188.27876      836.92608    
     70800  -81940.532      545.18675     -81395.345      187.40979      188.26398      837.23525    
     70900  -81891.415      546.23089     -81345.184      187.3952       188.24825      837.54442    
     71000  -81837.199      541.53296     -81295.666      187.38153      188.23479      837.85359    
     71100  -81792.244      547.99455     -81244.25       187.36611      188.21962      838.16276    
     71200  -81738.078      545.22481     -81192.853      187.35301      188.20609      838.47194    
     71300  -81685.854      545.10532     -81140.748      187.337        188.19137      838.78111    
     71400  -81642.669      554.12899     -81088.54       187.32277      188.17934      839.09028    
     71500  -81593.233      552.95011     -81040.283      187.30706      188.16409      839.39945    
     71600  -81530.046      543.7582      -80986.288      187.29476      188.15033      839.70862    
     71700  -81484.442      552.1305      -80932.312      187.2802       188.13406      840.01779    
     71800  -81427.504      547.82672     -80879.678      187.26715      188.12162      840.32696    
     71900  -81377.828      548.20764     -80829.621      187.25082      188.10729      840.63613    
     72000  -81331.802      555.58712     -80776.215      187.23835      188.09444      840.9453     
     72100  -81273.303      551.59264     -80721.711      187.22429      188.07794      841.25447    
     72200  -81224.601      553.52584     -80671.075      187.21223      188.06471      841.56365    
     72300  -81169.349      550.99331     -80618.356      187.1963       188.05045      841.87282    
     72400  -81116.034      549.63235     -80566.401      187.18259      188.03869      842.18199    
     72500  -81067.53       557.13439     -80510.395      187.16802      188.02345      842.49116    
     72600  -81005.061      547.30661     -80457.754      187.15608      188.00944      842.80033    
     72700  -80964.934      556.49752     -80408.436      187.14149      187.99479      843.1095     
     72800  -80908.441      551.59289     -80356.848      187.12759      187.98263      843.41867    
[...]
     81600  -99197.567      559.32489     -98638.242      187.9295       188.74195      870.62573    
     81700  -99234.607      565.51833     -98669.088      187.95032      188.75841      870.9349     
     81800  -99273.341      528.33524     -98745.006      187.97403      188.77969      871.24407    
     81900  -99308.938      511.78908     -98797.149      187.99438      188.8016       871.55324    
     82000  -99340.098      535.33377     -98804.764      188.01237      188.82333      871.86241    
     82100  -99373.339      557.49564     -98815.843      188.03464      188.84569      872.17158    
     82200  -99384.045      518.99761     -98865.047      188.05488      188.86314      872.48075    
     82300  -99360.836      481.46911     -98879.367      188.07728      188.87771      872.78992    
     82400  -99327.059      516.24563     -98810.813      188.10149      188.88955      873.09909    
     82500  -99260.586      543.52336     -98717.063      188.12351      188.89789      873.40827    
     82600  -99217.006      562.61807     -98654.388      188.14808      188.91289      873.71744    
     82700  -99183.837      543.06948     -98640.767      188.16751      188.92999      874.02661    
     82800  -99153.562      516.5864      -98636.976      188.19209      188.95188      874.33578    
     82900  -99144.138      536.5875      -98607.55       188.21695      188.96529      874.64495    
     83000  -99137.193      552.48469     -98584.708      188.24858      188.9803       874.95412    
     83100  -99159.558      564.04778     -98595.51       188.27942      188.99367      875.26329    
     83200  -99189.836      543.69334     -98646.143      188.31146      189.0116       875.57246    
     83300  -99215.192      516.4939      -98698.698      188.33681      189.03494      875.88163    
     83400  -99229.097      511.42147     -98717.676      188.36202      189.06134      876.19081    
     83500  -99255.442      547.65645     -98707.785      188.38115      189.08437      876.49998    
     83600  -99307.148      579.19141     -98727.956      188.40472      189.10826      876.80915    
     83700  -99358.465      542.0669      -98816.398      188.42709      189.1265       877.11832    
     83800  -99398.799      504.55358     -98894.245      188.45209      189.14789      877.42749    
     83900  -99394.221      486.54919     -98907.672      188.47544      189.16519      877.73666    
     84000  -99363.229      518.08854     -98845.14       188.50442      189.18403      878.04583    
     84100  -99300.286      540.88878     -98759.397      188.53464      189.20011      878.355      
     84200  -99246.014      548.15469     -98697.86       188.56715      189.21918      878.66417    
     84300  -99188.507      526.68234     -98661.824      188.59553      189.23582      878.97334    
     84400  -99146.994      527.94684     -98619.047      188.62832      189.25776      879.28252    
     84500  -99117.317      545.56932     -98571.747      188.65441      189.27617      879.59169    
     84600  -99081.466      542.74797     -98538.718      188.68486      189.29728      879.90086    
     84700  -99103.127      569.47514     -98533.652      188.71184      189.31245      880.21003    
     84800  -99129.583      545.69664     -98583.887      188.74152      189.33215      880.5192     
     84900  -99172.021      527.17029     -98644.851      188.76969      189.35283      880.82837    
     85000  -99211.137      524.84867     -98686.288      188.79453      189.3718       881.13754    
     85100  -99254.545      540.0002      -98714.545      188.82196      189.39111      881.44671    
     85200  -99281.971      536.7095      -98745.262      188.84686      189.40657      881.75588    
     85300  -99303.059      529.43103     -98773.628      188.8754       189.42202      882.06506    
     85400  -99305.442      519.82068     -98785.621      188.90295      189.43638      882.37423    
     85500  -99305.305      536.20862     -98769.097      188.93186      189.45133      882.6834     
     85600  -99294.579      547.99906     -98746.58       188.95964      189.46576      882.99257    
     85700  -99294.28       550.30708     -98743.973      188.98698      189.48475      883.30174    
     85800  -99292.384      527.17033     -98765.214      189.01196      189.50604      883.61091    
     85900  -99274.821      505.52884     -98769.292      189.03753      189.53231      883.92008    
     86000  -99234.161      508.70864     -98725.452      189.06132      189.55694      884.22925    
     86100  -99176.809      531.09086     -98645.718      189.08788      189.58282      884.53842    
     86200  -99128.262      558.39374     -98569.868      189.11555      189.60357      884.8476     
     86300  -99126.809      580.54534     -98546.264      189.14523      189.6213       885.15677    
     86400  -99173.376      566.51542     -98606.861      189.1768       189.63408      885.46594    
     86500  -99228.636      531.18321     -98697.452      189.20939      189.6412       885.77511    
     86600  -99276.133      516.92599     -98759.207      189.24725      189.64938      886.08428    
     86700  -99303.216      520.19974     -98783.016      189.2844       189.65626      886.39345    
     86800  -99318.142      535.25929     -98782.883      189.3212       189.66456      886.70262    
     86900  -99322.454      539.56297     -98782.891      189.35544      189.67542      887.01179    
     87000  -99312.083      526.09195     -98785.991      189.38843      189.69285      887.32096    
     87100  -99306.469      528.11372     -98778.356      189.41984      189.71132      887.63013    
     87200  -99297.105      534.45322     -98762.652      189.45045      189.73276      887.93931    
     87300  -99280.741      536.15529     -98744.586      189.48028      189.75102      888.24848    
     87400  -99260.128      533.53378     -98726.594      189.51281      189.77015      888.55765    
     87500  -99241.255      533.27606     -98707.979      189.54304      189.78678      888.86682    
     87600  -99213.293      524.84321     -98688.45       189.57595      189.80586      889.17599    
     87700  -99175.818      520.72883     -98655.089      189.60199      189.81898      889.48516    
     87800  -99141.606      538.80158     -98602.805      189.63181      189.83478      889.79433    
     87900  -99129.316      567.87037     -98561.446      189.65942      189.84628      890.1035     
     88000  -99154.961      571.84828     -98583.113      189.69014      189.85902      890.41267    
     88100  -99201.451      540.13784     -98661.313      189.72169      189.86733      890.72185    
     88200  -99252.453      519.69067     -98732.762      189.7547       189.87575      891.03102    
     88300  -99278.429      512.70919     -98765.72       189.78602      189.88595      891.34019    
     88400  -99284.736      528.3683      -98756.368      189.81626      189.90046      891.64936    
     88500  -99278.138      543.14461     -98734.993      189.84577      189.91526      891.95853    
     88600  -99275.295      546.56195     -98728.733      189.87779      189.92915      892.2677     
     88700  -99271.475      524.92547     -98746.549      189.91245      189.9394       892.57687    
     88800  -99278.871      518.08645     -98760.785      189.94928      189.94676      892.88604    
     88900  -99251.973      510.56837     -98741.405      189.98948      189.95401      893.19521    
     89000  -99233.858      542.97982     -98690.878      190.02837      189.96127      893.50439    
     89100  -99208.167      557.24119     -98650.926      190.06502      189.9697       893.81356    
     89200  -99189.034      541.36767     -98647.666      190.09884      189.97844      894.12273    
     89300  -99184.695      526.88971     -98657.805      190.13021      189.9884       894.4319     
     89400  -99181.143      528.437       -98652.706      190.16074      189.99671      894.74107    
     89500  -99183.885      547.87592     -98636.009      190.19083      190.0058       895.05024    
     89600  -99205.502      559.95547     -98645.547      190.2204       190.0136       895.35941    
     89700  -99246.987      545.38128     -98701.606      190.24896      190.02455      895.66858    
     89800  -99280.416      516.37558     -98764.041      190.27729      190.03752      895.97775    
     89900  -99300.158      508.93976     -98791.218      190.30621      190.05266      896.28692    
     90000  -99294.99       522.53689     -98772.454      190.33425      190.06767      896.5961     
     90100  -99275.356      543.94135     -98731.415      190.36325      190.083        896.90527    
     90200  -99265.033      551.3172      -98713.716      190.39108      190.09677      897.21444    
     90300  -99271.272      537.73041     -98733.541      190.42106      190.11104      897.52361    
     90400  -99276.545      519.16042     -98757.385      190.44838      190.12369      897.83278    
     90500  -99260.367      512.81055     -98747.557      190.47821      190.13711      898.14195    
     90600  -99227.845      527.81169     -98700.034      190.50633      190.14625      898.45112    
     90700  -99199.142      548.5165      -98650.625      190.53725      190.15559      898.76029    
     90800  -99184.795      552.6984      -98632.097      190.56779      190.16193      899.06946    
     90900  -99189.637      541.32788     -98648.309      190.60077      190.16967      899.37864    
     91000  -99200.078      525.41458     -98674.663      190.63292      190.17763      899.68781    
     91100  -99216.301      532.97437     -98683.327      190.66414      190.18634      899.99698    
     91200  -99207.724      529.7482      -98677.976      190.69683      190.19642      900.30615    
     91300  -99218.828      544.82472     -98674.004      190.72875      190.20451      900.61532    
     91400  -99236.511      543.64889     -98692.862      190.76345      190.21442      900.92449    
     91500  -99258.421      529.00584     -98729.415      190.7952       190.22225      901.23366    
     91600  -99274.532      519.0402      -98755.492      190.8295       190.23291      901.54283    
     91700  -99269.8        521.4082      -98748.391      190.86006      190.24026      901.852      
     91800  -99253.797      536.58663     -98717.211      190.89226      190.2512       902.16117    
     91900  -99241.944      551.62769     -98690.317      190.92061      190.25999      902.47035    
     92000  -99228.389      540.04292     -98688.346      190.94825      190.27048      902.77952    
     92100  -99228.014      528.44212     -98699.571      190.9741       190.27918      903.08869    
     92200  -99217.439      518.09306     -98699.346      191.0029       190.28866      903.39786    
     92300  -99211.368      534.7022      -98676.666      191.03025      190.29667      903.70703    
     92400  -99193.202      547.03514     -98646.166      191.05635      190.30673      904.0162     
     92500  -99189.812      550.38677     -98639.425      191.08229      190.31954      904.32537    
     92600  -99211.031      541.24328     -98669.788      191.10885      190.33178      904.63454    
     92700  -99236.532      523.38408     -98713.148      191.13922      190.34479      904.94371    
     92800  -99256.714      518.15616     -98738.558      191.17081      190.35367      905.25289    
     92900  -99263.435      525.23893     -98738.196      191.20686      190.36224      905.56206    
     93000  -99261.974      538.70641     -98723.267      191.24059      190.36694      905.87123    
     93100  -99250.522      539.64127     -98710.881      191.27507      190.37515      906.1804     
     93200  -99260.971      550.61334     -98710.358      191.30654      190.38213      906.48957    
     93300  -99275.028      541.85714     -98733.171      191.33764      190.39066      906.79874    
     93400  -99287.113      524.07979     -98763.034      191.36644      190.39745      907.10791    
     93500  -99287.295      517.67822     -98769.617      191.39586      190.40373      907.41708    
     93600  -99256.124      519.04724     -98737.077      191.42478      190.41021      907.72625    
     93700  -99225.796      542.7208      -98683.075      191.452        190.41653      908.03543    
     93800  -99205.329      560.59293     -98644.736      191.47948      190.42487      908.3446     
     93900  -99196.752      550.47995     -98646.272      191.50624      190.43498      908.65377    
     94000  -99206.541      532.58729     -98673.954      191.53396      190.44655      908.96294    
     94100  -99221.721      527.16288     -98694.558      191.56155      190.45729      909.27211    
     94200  -99217.872      526.90967     -98690.962      191.59112      190.47008      909.58128    
     94300  -99221.01       545.09357     -98675.916      191.61869      190.48063      909.89045    
     94400  -99212.663      539.75111     -98672.912      191.64834      190.49296      910.19962    
     94500  -99219.011      535.1567      -98683.855      191.67513      190.50185      910.50879    
     94600  -99234.541      534.67796     -98699.863      191.70383      190.51193      910.81796    
     94700  -99243.751      531.12023     -98712.631      191.72945      190.51946      911.12714    
     94800  -99252.413      530.45901     -98721.954      191.75693      190.52723      911.43631    
     94900  -99255.743      532.22915     -98723.513      191.78356      190.53239      911.74548    
     95000  -99243.663      530.80522     -98712.858      191.81161      190.53758      912.05465    
     95100  -99226.139      534.7434      -98691.396      191.83999      190.54274      912.36382    
     95200  -99213.443      545.08212     -98668.361      191.86727      190.54652      912.67299    
     95300  -99196.089      541.56466     -98654.524      191.89705      190.55059      912.98216    
     95400  -99187.84       535.73416     -98652.106      191.92574      190.55441      913.29133    
     95500  -99193.021      536.04004     -98656.981      191.95296      190.55964      913.6005     
     95600  -99200.542      533.58134     -98666.96       191.97758      190.56665      913.90968    
     95700  -99212.072      533.07789     -98678.994      192.00088      190.57544      914.21885    
     95800  -99226.395      531.5129      -98694.882      192.02303      190.58578      914.52802    
     95900  -99241.234      529.1154      -98712.118      192.0434       190.59464      914.83719    
     96000  -99253.453      529.74407     -98723.709      192.0658       190.6041       915.14636    
     96100  -99265.47       538.04607     -98727.424      192.08888      190.61001      915.45553    
     96200  -99267.909      535.66385     -98732.245      192.11626      190.61574      915.7647     
     96300  -99279.673      535.79475     -98743.879      192.14357      190.61872      916.07387    
     96400  -99282.247      525.71613     -98756.531      192.17357      190.62259      916.38304    
     96500  -99279.742      525.86169     -98753.88       192.20251      190.6277       916.69222    
     96600  -99253.923      523.54507     -98730.378      192.23111      190.63461      917.00139    
     96700  -99227.037      534.70335     -98692.334      192.2592       190.64472      917.31056    
     96800  -99205.023      546.0413      -98658.982      192.2862       190.65609      917.61973    
     96900  -99191.176      546.29417     -98644.882      192.31408      190.66994      917.9289     
     97000  -99197.43       543.95096     -98653.479      192.34117      190.68135      918.23807    
     97100  -99197.05       527.02008     -98670.03       192.36917      190.69372      918.54724    
     97200  -99202.115      525.52698     -98676.588      192.39697      190.70294      918.85641    
     97300  -99205.402      533.78971     -98671.612      192.42563      190.71055      919.16558    
     97400  -99210.461      541.39415     -98669.067      192.4535       190.71819      919.47475    
     97500  -99221.699      540.65783     -98681.041      192.48064      190.72495      919.78393    
     97600  -99237.007      534.27044     -98702.737      192.50787      190.73077      920.0931     
     97700  -99253.55       532.2454      -98721.305      192.53659      190.73688      920.40227    
     97800  -99255.064      527.43689     -98727.627      192.56503      190.74028      920.71144    
     97900  -99244.473      527.05286     -98717.42       192.59432      190.74497      921.02061    
     98000  -99227.274      530.12505     -98697.149      192.62154      190.75028      921.32978    
     98100  -99217.948      539.95086     -98677.997      192.64878      190.75777      921.63895    
     98200  -99202.213      538.22632     -98663.986      192.6738       190.76351      921.94812    
     98300  -99193.102      534.88897     -98658.213      192.70021      190.77045      922.25729    
     98400  -99192.946      535.75959     -98657.187      192.72514      190.77447      922.56647    
     98500  -99196.423      538.736       -98657.687      192.75051      190.77864      922.87564    
     98600  -99204.521      545.28903     -98659.232      192.77245      190.78221      923.18481    
     98700  -99211.164      539.48545     -98671.678      192.79326      190.78687      923.49398    
     98800  -99231.577      536.28319     -98695.293      192.81261      190.79086      923.80315    
     98900  -99247.821      527.20799     -98720.613      192.83302      190.79467      924.11232    
     99000  -99262.223      526.24802     -98735.975      192.85445      190.7978       924.42149    
     99100  -99262.161      526.88729     -98735.274      192.87798      190.80172      924.73066    
     99200  -99270.391      543.79957     -98726.592      192.90242      190.80628      925.03983    
     99300  -99266.132      536.78462     -98729.348      192.92674      190.8112       925.34901    
     99400  -99275.973      531.00371     -98744.969      192.95332      190.81754      925.65818    
     99500  -99271.538      520.67461     -98750.864      192.9802       190.82395      925.96735    
     99600  -99256.419      524.88602     -98731.533      193.00814      190.8329       926.27652    
     99700  -99232.712      539.96454     -98692.747      193.03324      190.84191      926.58569    
     99800  -99202.021      544.41686     -98657.604      193.0594       190.85379      926.89486    
     99900  -99192.977      546.00638     -98646.971      193.08598      190.86575      927.20403    
    100000  -99201.871      539.34015     -98662.531      193.1131       190.8755       927.5132     
Loop time of 2612.57 on 12 procs for 100000 steps with 13800 atoms

Performance: 3.307 ns/day, 7.257 hours/ns, 38.277 timesteps/s, 528.216 katom-step/s
95.0% CPU use with 12 MPI tasks x 1 OpenMP threads

MPI task timing breakdown:
Section |  min time  |  avg time  |  max time  |%varavg| %total
---------------------------------------------------------------
Pair    | 1927.8     | 2087.2     | 2392.3     | 328.9 | 79.89
Neigh   | 10.101     | 13.493     | 18.137     |  74.8 |  0.52
Comm    | 90.271     | 374.3      | 521.56     | 781.8 | 14.33
Output  | 0.64913    | 0.70637    | 0.77633    |   4.6 |  0.03
Modify  | 106.97     | 134.46     | 168.76     | 215.9 |  5.15
Other   |            | 2.453      |            |       |  0.09

Nlocal:           1150 ave        2169 max         474 min
Histogram: 2 1 1 4 1 0 1 1 0 1
Nghost:        1545.42 ave        2784 max         785 min
Histogram: 3 1 1 2 2 0 0 2 0 1
Neighs:              0 ave           0 max           0 min
Histogram: 12 0 0 0 0 0 0 0 0 0

Total # of neighbors = 0
Ave neighs/atom = 0
Neighbor list builds = 956
Dangerous builds = 0
Total wall time: 0:43:33
