LAMMPS data file via write_data, version 2 Aug 2023, timestep = 0, units = metal

6120 atoms
3 atom types

-100 100 xlo xhi
-100 100 ylo yhi
-2.3312511754 215.90715057859998 zlo zhi

Masses

1 12.0107
2 12.0107
3 12.0107

Atoms # atomic

1 1 -0.349945 -11.358273 0 0 0 0
2 1 -3.109814 -10.929862 0 0 0 0
3 1 -4.429395 -10.46486 0 0 0 0
4 1 -6.848137 -9.068399 0 0 0 0
5 1 -7.910632 -8.158109 0 0 0 0
6 1 -9.661581 -5.982198 0 0 0 0
7 1 -10.323493 -4.74956 0 0 0 0
8 1 -11.170175 -2.088068 0 0 0 0
9 1 -11.34211 -0.699557 0 0 0 0
10 1 -1.048507 -11.315188 1.212436 0 0 0
11 1 -2.431063 -11.100575 1.212436 0 0 0
12 1 -5.06522 -10.172334 1.212436 0 0 0
13 1 -6.276889 -9.472777 1.212436 0 0 0
14 1 -8.397848 -7.65565 1.212436 0 0 0
15 1 -9.274987 -6.565627 1.212436 0 0 0
16 1 -10.5963 -4.105029 1.212436 0 0 0
17 1 -11.020445 -2.771753 1.212436 0 0 0
18 1 -0.349945 -11.358273 2.424871 0 0 0
19 1 -3.109814 -10.929862 2.424871 0 0 0
20 1 -4.429395 -10.46486 2.424871 0 0 0
21 1 -6.848137 -9.068399 2.424871 0 0 0
22 1 -7.910632 -8.158109 2.424871 0 0 0
23 1 -9.661581 -5.982198 2.424871 0 0 0
24 1 -10.323493 -4.74956 2.424871 0 0 0
25 1 -11.170175 -2.088068 2.424871 0 0 0
26 1 -11.34211 -0.699557 2.424871 0 0 0
27 1 -1.048507 -11.315188 3.637307 0 0 0
28 1 -2.431063 -11.100575 3.637307 0 0 0
29 1 -5.06522 -10.172334 3.637307 0 0 0
30 1 -6.276889 -9.472777 3.637307 0 0 0
31 1 -8.397848 -7.65565 3.637307 0 0 0
32 1 -9.274987 -6.565627 3.637307 0 0 0
33 1 -10.5963 -4.105029 3.637307 0 0 0
34 1 -11.020445 -2.771753 3.637307 0 0 0
35 1 -0.349945 -11.358273 4.849742 0 0 0
36 1 -3.109814 -10.929862 4.849742 0 0 0
37 1 -4.429395 -10.46486 4.849742 0 0 0
38 1 -6.848137 -9.068399 4.849742 0 0 0
39 1 -7.910632 -8.158109 4.849742 0 0 0
40 1 -9.661581 -5.982198 4.849742 0 0 0
41 1 -10.323493 -4.74956 4.849742 0 0 0
42 1 -11.170175 -2.088068 4.849742 0 0 0
43 1 -11.34211 -0.699557 4.849742 0 0 0
44 1 -1.048507 -11.315188 6.062178 0 0 0
45 1 -2.431063 -11.100575 6.062178 0 0 0
46 1 -5.06522 -10.172334 6.062178 0 0 0
47 1 -6.276889 -9.472777 6.062178 0 0 0
48 1 -8.397848 -7.65565 6.062178 0 0 0
49 1 -9.274987 -6.565627 6.062178 0 0 0
50 1 -10.5963 -4.105029 6.062178 0 0 0
51 1 -11.020445 -2.771753 6.062178 0 0 0
52 1 -0.349945 -11.358273 7.274613 0 0 0
53 1 -3.109814 -10.929862 7.274613 0 0 0
54 1 -4.429395 -10.46486 7.274613 0 0 0
55 1 -6.848137 -9.068399 7.274613 0 0 0
56 1 -7.910632 -8.158109 7.274613 0 0 0
57 1 -9.661581 -5.982198 7.274613 0 0 0
58 1 -10.323493 -4.74956 7.274613 0 0 0
59 1 -11.170175 -2.088068 7.274613 0 0 0
60 1 -11.34211 -0.699557 7.274613 0 0 0
61 1 -1.048507 -11.315188 8.487049 0 0 0
62 1 -2.431063 -11.100575 8.487049 0 0 0
63 1 -5.06522 -10.172334 8.487049 0 0 0
64 1 -6.276889 -9.472777 8.487049 0 0 0
65 1 -8.397848 -7.65565 8.487049 0 0 0
66 1 -9.274987 -6.565627 8.487049 0 0 0
67 1 -10.5963 -4.105029 8.487049 0 0 0
68 1 -11.020445 -2.771753 8.487049 0 0 0
69 1 -0.349945 -11.358273 9.699485 0 0 0
70 1 -3.109814 -10.929862 9.699485 0 0 0
71 1 -4.429395 -10.46486 9.699485 0 0 0
72 1 -6.848137 -9.068399 9.699485 0 0 0
73 1 -7.910632 -8.158109 9.699485 0 0 0
74 1 -9.661581 -5.982198 9.699485 0 0 0
75 1 -10.323493 -4.74956 9.699485 0 0 0
76 1 -11.170175 -2.088068 9.699485 0 0 0
77 1 -11.34211 -0.699557 9.699485 0 0 0
78 1 -1.048507 -11.315188 10.91192 0 0 0
79 1 -2.431063 -11.100575 10.91192 0 0 0
80 1 -5.06522 -10.172334 10.91192 0 0 0
81 1 -6.276889 -9.472777 10.91192 0 0 0
82 1 -8.397848 -7.65565 10.91192 0 0 0
83 1 -9.274987 -6.565627 10.91192 0 0 0
84 1 -10.5963 -4.105029 10.91192 0 0 0
85 1 -11.020445 -2.771753 10.91192 0 0 0
86 1 -3.109814 -10.929862 12.124356 0 0 0
87 1 -4.429395 -10.46486 12.124356 0 0 0
88 1 -6.848137 -9.068399 12.124356 0 0 0
89 1 -7.910632 -8.158109 12.124356 0 0 0
90 1 -9.661581 -5.982198 12.124356 0 0 0
91 1 -10.323493 -4.74956 12.124356 0 0 0
92 1 -11.170175 -2.088068 12.124356 0 0 0
93 1 -11.34211 -0.699557 12.124356 0 0 0
94 1 -0.349945 -11.358273 12.124356 0 0 0
95 1 -5.06522 -10.172334 13.336791 0 0 0
96 1 -6.276889 -9.472777 13.336791 0 0 0
97 1 -8.397848 -7.65565 13.336791 0 0 0
98 1 -9.274987 -6.565627 13.336791 0 0 0
99 1 -10.5963 -4.105029 13.336791 0 0 0
100 1 -11.020445 -2.771753 13.336791 0 0 0
101 1 -1.048507 -11.315188 13.336791 0 0 0
102 1 -2.431063 -11.100575 13.336791 0 0 0
103 1 -6.848137 -9.068399 14.549227 0 0 0
104 1 -7.910632 -8.158109 14.549227 0 0 0
105 1 -9.661581 -5.982198 14.549227 0 0 0
106 1 -10.323493 -4.74956 14.549227 0 0 0
107 1 -11.170175 -2.088068 14.549227 0 0 0
108 1 -11.34211 -0.699557 14.549227 0 0 0
109 1 -0.349945 -11.358273 14.549227 0 0 0
110 1 -3.109814 -10.929862 14.549227 0 0 0
111 1 -4.429395 -10.46486 14.549227 0 0 0
112 1 -8.397848 -7.65565 15.761662 0 0 0
113 1 -9.274987 -6.565627 15.761662 0 0 0
114 1 -10.5963 -4.105029 15.761662 0 0 0
115 1 -11.020445 -2.771753 15.761662 0 0 0
116 1 -1.048507 -11.315188 15.761662 0 0 0
117 1 -2.431063 -11.100575 15.761662 0 0 0
118 1 -5.06522 -10.172334 15.761662 0 0 0
119 1 -6.276889 -9.472777 15.761662 0 0 0
120 1 -9.661581 -5.982198 16.974098 0 0 0
121 1 -10.323493 -4.74956 16.974098 0 0 0
122 1 -11.170175 -2.088068 16.974098 0 0 0
123 1 -11.34211 -0.699557 16.974098 0 0 0
124 1 -0.349945 -11.358273 16.974098 0 0 0
125 1 -3.109814 -10.929862 16.974098 0 0 0
126 1 -4.429395 -10.46486 16.974098 0 0 0
127 1 -6.848137 -9.068399 16.974098 0 0 0
128 1 -7.910632 -8.158109 16.974098 0 0 0
129 1 -10.5963 -4.105029 18.186533 0 0 0
130 1 -11.020445 -2.771753 18.186533 0 0 0
131 1 -1.048507 -11.315188 18.186533 0 0 0
132 1 -2.431063 -11.100575 18.186533 0 0 0
133 1 -5.06522 -10.172334 18.186533 0 0 0
134 1 -6.276889 -9.472777 18.186533 0 0 0
135 1 -8.397848 -7.65565 18.186533 0 0 0
136 1 -9.274987 -6.565627 18.186533 0 0 0
137 1 -11.170175 -2.088068 19.398969 0 0 0
138 1 -11.34211 -0.699557 19.398969 0 0 0
139 1 -0.349945 -11.358273 19.398969 0 0 0
140 1 -3.109814 -10.929862 19.398969 0 0 0
141 1 -4.429395 -10.46486 19.398969 0 0 0
142 1 -6.848137 -9.068399 19.398969 0 0 0
143 1 -7.910632 -8.158109 19.398969 0 0 0
144 1 -9.661581 -5.982198 19.398969 0 0 0
145 1 -10.323493 -4.74956 19.398969 0 0 0
146 1 -1.048507 -11.315188 20.611405 0 0 0
147 1 -2.431063 -11.100575 20.611405 0 0 0
148 1 -5.06522 -10.172334 20.611405 0 0 0
149 1 -6.276889 -9.472777 20.611405 0 0 0
150 1 -8.397848 -7.65565 20.611405 0 0 0
151 1 -9.274987 -6.565627 20.611405 0 0 0
152 1 -10.5963 -4.105029 20.611405 0 0 0
153 1 -11.020445 -2.771753 20.611405 0 0 0
154 1 -0.349945 -11.358273 21.82384 0 0 0
155 1 -3.109814 -10.929862 21.82384 0 0 0
156 1 -4.429395 -10.46486 21.82384 0 0 0
157 1 -6.848137 -9.068399 21.82384 0 0 0
158 1 -7.910632 -8.158109 21.82384 0 0 0
159 1 -9.661581 -5.982198 21.82384 0 0 0
160 1 -10.323493 -4.74956 21.82384 0 0 0
161 1 -11.170175 -2.088068 21.82384 0 0 0
162 1 -11.34211 -0.699557 21.82384 0 0 0
163 1 -1.048507 -11.315188 23.036276 0 0 0
164 1 -2.431063 -11.100575 23.036276 0 0 0
165 1 -5.06522 -10.172334 23.036276 0 0 0
166 1 -6.276889 -9.472777 23.036276 0 0 0
167 1 -8.397848 -7.65565 23.036276 0 0 0
168 1 -9.274987 -6.565627 23.036276 0 0 0
169 1 -10.5963 -4.105029 23.036276 0 0 0
170 1 -11.020445 -2.771753 23.036276 0 0 0
171 1 -0.349945 -11.358273 24.248711 0 0 0
172 1 -3.109814 -10.929862 24.248711 0 0 0
173 1 -4.429395 -10.46486 24.248711 0 0 0
174 1 -6.848137 -9.068399 24.248711 0 0 0
175 1 -7.910632 -8.158109 24.248711 0 0 0
176 1 -9.661581 -5.982198 24.248711 0 0 0
177 1 -10.323493 -4.74956 24.248711 0 0 0
178 1 -11.170175 -2.088068 24.248711 0 0 0
179 1 -11.34211 -0.699557 24.248711 0 0 0
180 1 -1.048507 -11.315188 25.461147 0 0 0
181 1 -2.431063 -11.100575 25.461147 0 0 0
182 1 -5.06522 -10.172334 25.461147 0 0 0
183 1 -6.276889 -9.472777 25.461147 0 0 0
184 1 -8.397848 -7.65565 25.461147 0 0 0
185 1 -9.274987 -6.565627 25.461147 0 0 0
186 1 -10.5963 -4.105029 25.461147 0 0 0
187 1 -11.020445 -2.771753 25.461147 0 0 0
188 1 -0.349945 -11.358273 26.673582 0 0 0
189 1 -3.109814 -10.929862 26.673582 0 0 0
190 1 -4.429395 -10.46486 26.673582 0 0 0
191 1 -6.848137 -9.068399 26.673582 0 0 0
192 1 -7.910632 -8.158109 26.673582 0 0 0
193 1 -9.661581 -5.982198 26.673582 0 0 0
194 1 -10.323493 -4.74956 26.673582 0 0 0
195 1 -11.170175 -2.088068 26.673582 0 0 0
196 1 -11.34211 -0.699557 26.673582 0 0 0
197 1 -1.048507 -11.315188 27.886018 0 0 0
198 1 -2.431063 -11.100575 27.886018 0 0 0
199 1 -5.06522 -10.172334 27.886018 0 0 0
200 1 -6.276889 -9.472777 27.886018 0 0 0
201 1 -8.397848 -7.65565 27.886018 0 0 0
202 1 -9.274987 -6.565627 27.886018 0 0 0
203 1 -10.5963 -4.105029 27.886018 0 0 0
204 1 -11.020445 -2.771753 27.886018 0 0 0
205 1 -0.349945 -11.358273 29.098454 0 0 0
206 1 -3.109814 -10.929862 29.098454 0 0 0
207 1 -4.429395 -10.46486 29.098454 0 0 0
208 1 -6.848137 -9.068399 29.098454 0 0 0
209 1 -7.910632 -8.158109 29.098454 0 0 0
210 1 -9.661581 -5.982198 29.098454 0 0 0
211 1 -10.323493 -4.74956 29.098454 0 0 0
212 1 -11.170175 -2.088068 29.098454 0 0 0
213 1 -11.34211 -0.699557 29.098454 0 0 0
214 1 -1.048507 -11.315188 30.310889 0 0 0
215 1 -2.431063 -11.100575 30.310889 0 0 0
216 1 -5.06522 -10.172334 30.310889 0 0 0
217 1 -6.276889 -9.472777 30.310889 0 0 0
218 1 -8.397848 -7.65565 30.310889 0 0 0
219 1 -9.274987 -6.565627 30.310889 0 0 0
220 1 -10.5963 -4.105029 30.310889 0 0 0
221 1 -11.020445 -2.771753 30.310889 0 0 0
222 1 -0.349945 -11.358273 31.523325 0 0 0
223 1 -3.109814 -10.929862 31.523325 0 0 0
224 1 -4.429395 -10.46486 31.523325 0 0 0
225 1 -6.848137 -9.068399 31.523325 0 0 0
226 1 -7.910632 -8.158109 31.523325 0 0 0
227 1 -9.661581 -5.982198 31.523325 0 0 0
228 1 -10.323493 -4.74956 31.523325 0 0 0
229 1 -11.170175 -2.088068 31.523325 0 0 0
230 1 -11.34211 -0.699557 31.523325 0 0 0
231 1 -1.048507 -11.315188 32.73576 0 0 0
232 1 -2.431063 -11.100575 32.73576 0 0 0
233 1 -5.06522 -10.172334 32.73576 0 0 0
234 1 -6.276889 -9.472777 32.73576 0 0 0
235 1 -8.397848 -7.65565 32.73576 0 0 0
236 1 -9.274987 -6.565627 32.73576 0 0 0
237 1 -10.5963 -4.105029 32.73576 0 0 0
238 1 -11.020445 -2.771753 32.73576 0 0 0
239 1 -0.349945 -11.358273 33.948196 0 0 0
240 1 -3.109814 -10.929862 33.948196 0 0 0
241 1 -4.429395 -10.46486 33.948196 0 0 0
242 1 -6.848137 -9.068399 33.948196 0 0 0
243 1 -7.910632 -8.158109 33.948196 0 0 0
244 1 -9.661581 -5.982198 33.948196 0 0 0
245 1 -10.323493 -4.74956 33.948196 0 0 0
246 1 -11.170175 -2.088068 33.948196 0 0 0
247 1 -11.34211 -0.699557 33.948196 0 0 0
248 1 -1.048507 -11.315188 35.160631 0 0 0
249 1 -2.431063 -11.100575 35.160631 0 0 0
250 1 -5.06522 -10.172334 35.160631 0 0 0
251 1 -6.276889 -9.472777 35.160631 0 0 0
252 1 -8.397848 -7.65565 35.160631 0 0 0
253 1 -9.274987 -6.565627 35.160631 0 0 0
254 1 -10.5963 -4.105029 35.160631 0 0 0
255 1 -11.020445 -2.771753 35.160631 0 0 0
256 1 -0.349945 -11.358273 36.373067 0 0 0
257 1 -3.109814 -10.929862 36.373067 0 0 0
258 1 -4.429395 -10.46486 36.373067 0 0 0
259 1 -6.848137 -9.068399 36.373067 0 0 0
260 1 -7.910632 -8.158109 36.373067 0 0 0
261 1 -9.661581 -5.982198 36.373067 0 0 0
262 1 -10.323493 -4.74956 36.373067 0 0 0
263 1 -11.170175 -2.088068 36.373067 0 0 0
264 1 -11.34211 -0.699557 36.373067 0 0 0
265 1 -1.048507 -11.315188 37.585503 0 0 0
266 1 -2.431063 -11.100575 37.585503 0 0 0
267 1 -5.06522 -10.172334 37.585503 0 0 0
268 1 -6.276889 -9.472777 37.585503 0 0 0
269 1 -8.397848 -7.65565 37.585503 0 0 0
270 1 -9.274987 -6.565627 37.585503 0 0 0
271 1 -10.5963 -4.105029 37.585503 0 0 0
272 1 -11.020445 -2.771753 37.585503 0 0 0
273 1 -0.349945 -11.358273 38.797938 0 0 0
274 1 -3.109814 -10.929862 38.797938 0 0 0
275 1 -4.429395 -10.46486 38.797938 0 0 0
276 1 -6.848137 -9.068399 38.797938 0 0 0
277 1 -7.910632 -8.158109 38.797938 0 0 0
278 1 -9.661581 -5.982198 38.797938 0 0 0
279 1 -10.323493 -4.74956 38.797938 0 0 0
280 1 -11.170175 -2.088068 38.797938 0 0 0
281 1 -11.34211 -0.699557 38.797938 0 0 0
282 1 -1.048507 -11.315188 40.010374 0 0 0
283 1 -2.431063 -11.100575 40.010374 0 0 0
284 1 -5.06522 -10.172334 40.010374 0 0 0
285 1 -6.276889 -9.472777 40.010374 0 0 0
286 1 -8.397848 -7.65565 40.010374 0 0 0
287 1 -9.274987 -6.565627 40.010374 0 0 0
288 1 -10.5963 -4.105029 40.010374 0 0 0
289 1 -11.020445 -2.771753 40.010374 0 0 0
290 1 -0.349945 -11.358273 41.222809 0 0 0
291 1 -3.109814 -10.929862 41.222809 0 0 0
292 1 -4.429395 -10.46486 41.222809 0 0 0
293 1 -6.848137 -9.068399 41.222809 0 0 0
294 1 -7.910632 -8.158109 41.222809 0 0 0
295 1 -9.661581 -5.982198 41.222809 0 0 0
296 1 -10.323493 -4.74956 41.222809 0 0 0
297 1 -11.170175 -2.088068 41.222809 0 0 0
298 1 -11.34211 -0.699557 41.222809 0 0 0
299 1 -1.048507 -11.315188 42.435245 0 0 0
300 1 -2.431063 -11.100575 42.435245 0 0 0
301 1 -5.06522 -10.172334 42.435245 0 0 0
302 1 -6.276889 -9.472777 42.435245 0 0 0
303 1 -8.397848 -7.65565 42.435245 0 0 0
304 1 -9.274987 -6.565627 42.435245 0 0 0
305 1 -10.5963 -4.105029 42.435245 0 0 0
306 1 -11.020445 -2.771753 42.435245 0 0 0
307 1 -11.020445 -2.771753 -1.2124353507999786 0 0 1
308 1 -10.5963 -4.105029 -1.2124353507999786 0 0 1
309 1 -9.274987 -6.565627 -1.2124353507999786 0 0 1
310 1 -8.397848 -7.65565 -1.2124353507999786 0 0 1
311 1 -6.276889 -9.472777 -1.2124353507999786 0 0 1
312 1 -5.06522 -10.172334 -1.2124353507999786 0 0 1
313 1 -2.431063 -11.100575 -1.2124353507999786 0 0 1
314 1 -1.048507 -11.315188 -1.2124353507999786 0 0 1
315 1 -11.34211 -0.699557 70.3212623508 0 0 0
316 1 -11.170175 -2.088068 70.3212623508 0 0 0
317 1 -10.323493 -4.74956 70.3212623508 0 0 0
318 1 -9.661581 -5.982198 70.3212623508 0 0 0
319 1 -7.910632 -8.158109 70.3212623508 0 0 0
320 1 -6.848137 -9.068399 70.3212623508 0 0 0
321 1 -4.429395 -10.46486 70.3212623508 0 0 0
322 1 -3.109814 -10.929862 70.3212623508 0 0 0
323 1 -0.349945 -11.358273 70.3212623508 0 0 0
324 1 -11.020445 -2.771753 69.1088273508 0 0 0
325 1 -10.5963 -4.105029 69.1088273508 0 0 0
326 1 -9.274987 -6.565627 69.1088273508 0 0 0
327 1 -8.397848 -7.65565 69.1088273508 0 0 0
328 1 -6.276889 -9.472777 69.1088273508 0 0 0
329 1 -5.06522 -10.172334 69.1088273508 0 0 0
330 1 -2.431063 -11.100575 69.1088273508 0 0 0
331 1 -1.048507 -11.315188 69.1088273508 0 0 0
332 1 -11.34211 -0.699557 67.8963913508 0 0 0
333 1 -11.170175 -2.088068 67.8963913508 0 0 0
334 1 -10.323493 -4.74956 67.8963913508 0 0 0
335 1 -9.661581 -5.982198 67.8963913508 0 0 0
336 1 -7.910632 -8.158109 67.8963913508 0 0 0
337 1 -6.848137 -9.068399 67.8963913508 0 0 0
338 1 -4.429395 -10.46486 67.8963913508 0 0 0
339 1 -3.109814 -10.929862 67.8963913508 0 0 0
340 1 -0.349945 -11.358273 67.8963913508 0 0 0
341 1 -11.020445 -2.771753 66.6839563508 0 0 0
342 1 -10.5963 -4.105029 66.6839563508 0 0 0
343 1 -9.274987 -6.565627 66.6839563508 0 0 0
344 1 -8.397848 -7.65565 66.6839563508 0 0 0
345 1 -6.276889 -9.472777 66.6839563508 0 0 0
346 1 -5.06522 -10.172334 66.6839563508 0 0 0
347 1 -2.431063 -11.100575 66.6839563508 0 0 0
348 1 -1.048507 -11.315188 66.6839563508 0 0 0
349 1 -11.34211 -0.699557 65.4715203508 0 0 0
350 1 -11.170175 -2.088068 65.4715203508 0 0 0
351 1 -10.323493 -4.74956 65.4715203508 0 0 0
352 1 -9.661581 -5.982198 65.4715203508 0 0 0
353 1 -7.910632 -8.158109 65.4715203508 0 0 0
354 1 -6.848137 -9.068399 65.4715203508 0 0 0
355 1 -4.429395 -10.46486 65.4715203508 0 0 0
356 1 -3.109814 -10.929862 65.4715203508 0 0 0
357 1 -0.349945 -11.358273 65.4715203508 0 0 0
358 1 -11.020445 -2.771753 64.2590853508 0 0 0
359 1 -10.5963 -4.105029 64.2590853508 0 0 0
360 1 -9.274987 -6.565627 64.2590853508 0 0 0
361 1 -8.397848 -7.65565 64.2590853508 0 0 0
362 1 -6.276889 -9.472777 64.2590853508 0 0 0
363 1 -5.06522 -10.172334 64.2590853508 0 0 0
364 1 -2.431063 -11.100575 64.2590853508 0 0 0
365 1 -1.048507 -11.315188 64.2590853508 0 0 0
366 1 -10.323493 -4.74956 63.0466493508 0 0 0
367 1 -9.661581 -5.982198 63.0466493508 0 0 0
368 1 -7.910632 -8.158109 63.0466493508 0 0 0
369 1 -6.848137 -9.068399 63.0466493508 0 0 0
370 1 -4.429395 -10.46486 63.0466493508 0 0 0
371 1 -3.109814 -10.929862 63.0466493508 0 0 0
372 1 -0.349945 -11.358273 63.0466493508 0 0 0
373 1 -11.34211 -0.699557 63.0466493508 0 0 0
374 1 -11.170175 -2.088068 63.0466493508 0 0 0
375 1 -9.274987 -6.565627 61.8342133508 0 0 0
376 1 -8.397848 -7.65565 61.8342133508 0 0 0
377 1 -6.276889 -9.472777 61.8342133508 0 0 0
378 1 -5.06522 -10.172334 61.8342133508 0 0 0
379 1 -2.431063 -11.100575 61.8342133508 0 0 0
380 1 -1.048507 -11.315188 61.8342133508 0 0 0
381 1 -11.020445 -2.771753 61.8342133508 0 0 0
382 1 -10.5963 -4.105029 61.8342133508 0 0 0
383 1 -7.910632 -8.158109 60.6217783508 0 0 0
384 1 -6.848137 -9.068399 60.6217783508 0 0 0
385 1 -4.429395 -10.46486 60.6217783508 0 0 0
386 1 -3.109814 -10.929862 60.6217783508 0 0 0
387 1 -0.349945 -11.358273 60.6217783508 0 0 0
388 1 -11.34211 -0.699557 60.6217783508 0 0 0
389 1 -11.170175 -2.088068 60.6217783508 0 0 0
390 1 -10.323493 -4.74956 60.6217783508 0 0 0
391 1 -9.661581 -5.982198 60.6217783508 0 0 0
392 1 -6.276889 -9.472777 59.4093423508 0 0 0
393 1 -5.06522 -10.172334 59.4093423508 0 0 0
394 1 -2.431063 -11.100575 59.4093423508 0 0 0
395 1 -1.048507 -11.315188 59.4093423508 0 0 0
396 1 -11.020445 -2.771753 59.4093423508 0 0 0
397 1 -10.5963 -4.105029 59.4093423508 0 0 0
398 1 -9.274987 -6.565627 59.4093423508 0 0 0
399 1 -8.397848 -7.65565 59.4093423508 0 0 0
400 1 -4.429395 -10.46486 58.196907350800004 0 0 0
401 1 -3.109814 -10.929862 58.196907350800004 0 0 0
402 1 -0.349945 -11.358273 58.196907350800004 0 0 0
403 1 -11.34211 -0.699557 58.196907350800004 0 0 0
404 1 -11.170175 -2.088068 58.196907350800004 0 0 0
405 1 -10.323493 -4.74956 58.196907350800004 0 0 0
406 1 -9.661581 -5.982198 58.196907350800004 0 0 0
407 1 -7.910632 -8.158109 58.196907350800004 0 0 0
408 1 -6.848137 -9.068399 58.196907350800004 0 0 0
409 1 -2.431063 -11.100575 56.9844713508 0 0 0
410 1 -1.048507 -11.315188 56.9844713508 0 0 0
411 1 -11.020445 -2.771753 56.9844713508 0 0 0
412 1 -10.5963 -4.105029 56.9844713508 0 0 0
413 1 -9.274987 -6.565627 56.9844713508 0 0 0
414 1 -8.397848 -7.65565 56.9844713508 0 0 0
415 1 -6.276889 -9.472777 56.9844713508 0 0 0
416 1 -5.06522 -10.172334 56.9844713508 0 0 0
417 1 -0.349945 -11.358273 55.7720363508 0 0 0
418 1 -11.34211 -0.699557 55.7720363508 0 0 0
419 1 -11.170175 -2.088068 55.7720363508 0 0 0
420 1 -10.323493 -4.74956 55.7720363508 0 0 0
421 1 -9.661581 -5.982198 55.7720363508 0 0 0
422 1 -7.910632 -8.158109 55.7720363508 0 0 0
423 1 -6.848137 -9.068399 55.7720363508 0 0 0
424 1 -4.429395 -10.46486 55.7720363508 0 0 0
425 1 -3.109814 -10.929862 55.7720363508 0 0 0
426 1 -11.020445 -2.771753 54.559600350800004 0 0 0
427 1 -10.5963 -4.105029 54.559600350800004 0 0 0
428 1 -9.274987 -6.565627 54.559600350800004 0 0 0
429 1 -8.397848 -7.65565 54.559600350800004 0 0 0
430 1 -6.276889 -9.472777 54.559600350800004 0 0 0
431 1 -5.06522 -10.172334 54.559600350800004 0 0 0
432 1 -2.431063 -11.100575 54.559600350800004 0 0 0
433 1 -1.048507 -11.315188 54.559600350800004 0 0 0
434 1 -11.34211 -0.699557 53.3471653508 0 0 0
435 1 -11.170175 -2.088068 53.3471653508 0 0 0
436 1 -10.323493 -4.74956 53.3471653508 0 0 0
437 1 -9.661581 -5.982198 53.3471653508 0 0 0
438 1 -7.910632 -8.158109 53.3471653508 0 0 0
439 1 -6.848137 -9.068399 53.3471653508 0 0 0
440 1 -4.429395 -10.46486 53.3471653508 0 0 0
441 1 -3.109814 -10.929862 53.3471653508 0 0 0
442 1 -0.349945 -11.358273 53.3471653508 0 0 0
443 1 -11.020445 -2.771753 52.1347293508 0 0 0
444 1 -10.5963 -4.105029 52.1347293508 0 0 0
445 1 -9.274987 -6.565627 52.1347293508 0 0 0
446 1 -8.397848 -7.65565 52.1347293508 0 0 0
447 1 -6.276889 -9.472777 52.1347293508 0 0 0
448 1 -5.06522 -10.172334 52.1347293508 0 0 0
449 1 -2.431063 -11.100575 52.1347293508 0 0 0
450 1 -1.048507 -11.315188 52.1347293508 0 0 0
451 1 -11.34211 -0.699557 50.922293350800004 0 0 0
452 1 -11.170175 -2.088068 50.922293350800004 0 0 0
453 1 -10.323493 -4.74956 50.922293350800004 0 0 0
454 1 -9.661581 -5.982198 50.922293350800004 0 0 0
455 1 -7.910632 -8.158109 50.922293350800004 0 0 0
456 1 -6.848137 -9.068399 50.922293350800004 0 0 0
457 1 -4.429395 -10.46486 50.922293350800004 0 0 0
458 1 -3.109814 -10.929862 50.922293350800004 0 0 0
459 1 -0.349945 -11.358273 50.922293350800004 0 0 0
460 1 -11.020445 -2.771753 49.709858350800005 0 0 0
461 1 -10.5963 -4.105029 49.709858350800005 0 0 0
462 1 -0.349945 -11.358273 43.6476803508 0 0 0
463 1 -3.109814 -10.929862 43.6476803508 0 0 0
464 1 -4.429395 -10.46486 43.6476803508 0 0 0
465 1 -6.848137 -9.068399 43.6476803508 0 0 0
466 1 -7.910632 -8.158109 43.6476803508 0 0 0
467 1 -9.661581 -5.982198 43.6476803508 0 0 0
468 1 -10.323493 -4.74956 43.6476803508 0 0 0
469 1 -11.170175 -2.088068 43.6476803508 0 0 0
470 1 -11.34211 -0.699557 43.6476803508 0 0 0
471 1 -1.048507 -11.315188 44.8601163508 0 0 0
472 1 -2.431063 -11.100575 44.8601163508 0 0 0
473 1 -5.06522 -10.172334 44.8601163508 0 0 0
474 1 -6.276889 -9.472777 44.8601163508 0 0 0
475 1 -8.397848 -7.65565 44.8601163508 0 0 0
476 1 -9.274987 -6.565627 44.8601163508 0 0 0
477 1 -10.5963 -4.105029 44.8601163508 0 0 0
478 1 -11.020445 -2.771753 44.8601163508 0 0 0
479 1 -0.349945 -11.358273 46.072551350800005 0 0 0
480 1 -3.109814 -10.929862 46.072551350800005 0 0 0
481 1 -4.429395 -10.46486 46.072551350800005 0 0 0
482 1 -6.848137 -9.068399 46.072551350800005 0 0 0
483 1 -7.910632 -8.158109 46.072551350800005 0 0 0
484 1 -9.661581 -5.982198 46.072551350800005 0 0 0
485 1 -10.323493 -4.74956 46.072551350800005 0 0 0
486 1 -11.170175 -2.088068 46.072551350800005 0 0 0
487 1 -11.34211 -0.699557 46.072551350800005 0 0 0
488 1 -1.048507 -11.315188 47.2849873508 0 0 0
489 1 -2.431063 -11.100575 47.2849873508 0 0 0
490 1 -5.06522 -10.172334 47.2849873508 0 0 0
491 1 -6.276889 -9.472777 47.2849873508 0 0 0
492 1 -8.397848 -7.65565 47.2849873508 0 0 0
493 1 -9.274987 -6.565627 47.2849873508 0 0 0
494 1 -10.5963 -4.105029 47.2849873508 0 0 0
495 1 -11.020445 -2.771753 47.2849873508 0 0 0
496 1 -0.349945 -11.358273 48.4974223508 0 0 0
497 1 -3.109814 -10.929862 48.4974223508 0 0 0
498 1 -4.429395 -10.46486 48.4974223508 0 0 0
499 1 -6.848137 -9.068399 48.4974223508 0 0 0
500 1 -7.910632 -8.158109 48.4974223508 0 0 0
501 1 -9.661581 -5.982198 48.4974223508 0 0 0
502 1 -10.323493 -4.74956 48.4974223508 0 0 0
503 1 -11.170175 -2.088068 48.4974223508 0 0 0
504 1 -11.34211 -0.699557 48.4974223508 0 0 0
505 1 -1.048507 -11.315188 49.709858350800005 0 0 0
506 1 -2.431063 -11.100575 49.709858350800005 0 0 0
507 1 -5.06522 -10.172334 49.709858350800005 0 0 0
508 1 -6.276889 -9.472777 49.709858350800005 0 0 0
509 1 -8.397848 -7.65565 49.709858350800005 0 0 0
510 1 -9.274987 -6.565627 49.709858350800005 0 0 0
511 1 -1.048507 -11.315188 71.5336983508 0 0 0
512 1 -2.431063 -11.100575 71.5336983508 0 0 0
513 1 -5.06522 -10.172334 71.5336983508 0 0 0
514 1 -6.276889 -9.472777 71.5336983508 0 0 0
515 1 -8.397848 -7.65565 71.5336983508 0 0 0
516 1 -9.274987 -6.565627 71.5336983508 0 0 0
517 1 -10.5963 -4.105029 71.5336983508 0 0 0
518 1 -11.020445 -2.771753 71.5336983508 0 0 0
519 1 -0.349945 -11.358273 72.7461343508 0 0 0
520 1 -3.109814 -10.929862 72.7461343508 0 0 0
521 1 -4.429395 -10.46486 72.7461343508 0 0 0
522 1 -6.848137 -9.068399 72.7461343508 0 0 0
523 1 -7.910632 -8.158109 72.7461343508 0 0 0
524 1 -9.661581 -5.982198 72.7461343508 0 0 0
525 1 -10.323493 -4.74956 72.7461343508 0 0 0
526 1 -11.170175 -2.088068 72.7461343508 0 0 0
527 1 -11.34211 -0.699557 72.7461343508 0 0 0
528 1 -1.048507 -11.315188 73.9585693508 0 0 0
529 1 -2.431063 -11.100575 73.9585693508 0 0 0
530 1 -5.06522 -10.172334 73.9585693508 0 0 0
531 1 -6.276889 -9.472777 73.9585693508 0 0 0
532 1 -8.397848 -7.65565 73.9585693508 0 0 0
533 1 -9.274987 -6.565627 73.9585693508 0 0 0
534 1 -10.5963 -4.105029 73.9585693508 0 0 0
535 1 -11.020445 -2.771753 73.9585693508 0 0 0
536 1 -0.349945 -11.358273 75.1710053508 0 0 0
537 1 -3.109814 -10.929862 75.1710053508 0 0 0
538 1 -4.429395 -10.46486 75.1710053508 0 0 0
539 1 -6.848137 -9.068399 75.1710053508 0 0 0
540 1 -7.910632 -8.158109 75.1710053508 0 0 0
541 1 -9.661581 -5.982198 75.1710053508 0 0 0
542 1 -10.323493 -4.74956 75.1710053508 0 0 0
543 1 -11.170175 -2.088068 75.1710053508 0 0 0
544 1 -11.34211 -0.699557 75.1710053508 0 0 0
545 1 -1.048507 -11.315188 76.3834403508 0 0 0
546 1 -2.431063 -11.100575 76.3834403508 0 0 0
547 1 -5.06522 -10.172334 76.3834403508 0 0 0
548 1 -6.276889 -9.472777 76.3834403508 0 0 0
549 1 -8.397848 -7.65565 76.3834403508 0 0 0
550 1 -9.274987 -6.565627 76.3834403508 0 0 0
551 1 -10.5963 -4.105029 76.3834403508 0 0 0
552 1 -11.020445 -2.771753 76.3834403508 0 0 0
553 1 -0.349945 -11.358273 77.59587635080001 0 0 0
554 1 -3.109814 -10.929862 77.59587635080001 0 0 0
555 1 -4.429395 -10.46486 77.59587635080001 0 0 0
556 1 -6.848137 -9.068399 77.59587635080001 0 0 0
557 1 -7.910632 -8.158109 77.59587635080001 0 0 0
558 1 -9.661581 -5.982198 77.59587635080001 0 0 0
559 1 -10.323493 -4.74956 77.59587635080001 0 0 0
560 1 -11.170175 -2.088068 77.59587635080001 0 0 0
561 1 -11.34211 -0.699557 77.59587635080001 0 0 0
562 1 -1.048507 -11.315188 78.80831135080001 0 0 0
563 1 -2.431063 -11.100575 78.80831135080001 0 0 0
564 1 -5.06522 -10.172334 78.80831135080001 0 0 0
565 1 -6.276889 -9.472777 78.80831135080001 0 0 0
566 1 -8.397848 -7.65565 78.80831135080001 0 0 0
567 1 -9.274987 -6.565627 78.80831135080001 0 0 0
568 1 -10.5963 -4.105029 78.80831135080001 0 0 0
569 1 -11.020445 -2.771753 78.80831135080001 0 0 0
570 1 -0.349945 -11.358273 80.02074735080001 0 0 0
571 1 -3.109814 -10.929862 80.02074735080001 0 0 0
572 1 -4.429395 -10.46486 80.02074735080001 0 0 0
573 1 -6.848137 -9.068399 80.02074735080001 0 0 0
574 1 -7.910632 -8.158109 80.02074735080001 0 0 0
575 1 -9.661581 -5.982198 80.02074735080001 0 0 0
576 1 -10.323493 -4.74956 80.02074735080001 0 0 0
577 1 -11.170175 -2.088068 80.02074735080001 0 0 0
578 1 -11.34211 -0.699557 80.02074735080001 0 0 0
579 1 -1.048507 -11.315188 81.2331833508 0 0 0
580 1 -2.431063 -11.100575 81.2331833508 0 0 0
581 1 -5.06522 -10.172334 81.2331833508 0 0 0
582 1 -6.276889 -9.472777 81.2331833508 0 0 0
583 1 -8.397848 -7.65565 81.2331833508 0 0 0
584 1 -9.274987 -6.565627 81.2331833508 0 0 0
585 1 -10.5963 -4.105029 81.2331833508 0 0 0
586 1 -11.020445 -2.771753 81.2331833508 0 0 0
587 1 -0.349945 -11.358273 82.4456183508 0 0 0
588 1 -3.109814 -10.929862 82.4456183508 0 0 0
589 1 -4.429395 -10.46486 82.4456183508 0 0 0
590 1 -6.848137 -9.068399 82.4456183508 0 0 0
591 1 -7.910632 -8.158109 82.4456183508 0 0 0
592 1 -9.661581 -5.982198 82.4456183508 0 0 0
593 1 -10.323493 -4.74956 82.4456183508 0 0 0
594 1 -11.170175 -2.088068 82.4456183508 0 0 0
595 1 -11.34211 -0.699557 82.4456183508 0 0 0
596 1 -1.048507 -11.315188 83.6580543508 0 0 0
597 1 -2.431063 -11.100575 83.6580543508 0 0 0
598 1 -5.06522 -10.172334 83.6580543508 0 0 0
599 1 -6.276889 -9.472777 83.6580543508 0 0 0
600 1 -8.397848 -7.65565 83.6580543508 0 0 0
601 1 -9.274987 -6.565627 83.6580543508 0 0 0
602 1 -10.5963 -4.105029 83.6580543508 0 0 0
603 1 -11.020445 -2.771753 83.6580543508 0 0 0
604 1 -0.349945 -11.358273 84.8704893508 0 0 0
605 1 -3.109814 -10.929862 84.8704893508 0 0 0
606 1 -4.429395 -10.46486 84.8704893508 0 0 0
607 1 -6.848137 -9.068399 84.8704893508 0 0 0
608 1 -7.910632 -8.158109 84.8704893508 0 0 0
609 1 -9.661581 -5.982198 84.8704893508 0 0 0
610 1 -10.323493 -4.74956 84.8704893508 0 0 0
611 1 -11.170175 -2.088068 84.8704893508 0 0 0
612 1 -11.34211 -0.699557 84.8704893508 0 0 0
613 1 -1.048507 -11.315188 86.0829253508 0 0 0
614 1 -2.431063 -11.100575 86.0829253508 0 0 0
615 1 -5.06522 -10.172334 86.0829253508 0 0 0
616 1 -6.276889 -9.472777 86.0829253508 0 0 0
617 1 -8.397848 -7.65565 86.0829253508 0 0 0
618 1 -9.274987 -6.565627 86.0829253508 0 0 0
619 1 -10.5963 -4.105029 86.0829253508 0 0 0
620 1 -11.020445 -2.771753 86.0829253508 0 0 0
621 1 -0.349945 -11.358273 143.06739705240003 0 0 0
622 1 -11.34211 -0.699557 143.06739705240003 0 0 0
623 1 -11.170175 -2.088068 143.06739705240003 0 0 0
624 1 -10.323493 -4.74956 143.06739705240003 0 0 0
625 1 -9.661581 -5.982198 143.06739705240003 0 0 0
626 1 -7.910632 -8.158109 143.06739705240003 0 0 0
627 1 -6.848137 -9.068399 143.06739705240003 0 0 0
628 1 -4.429395 -10.46486 143.06739705240003 0 0 0
629 1 -3.109814 -10.929862 143.06739705240003 0 0 0
630 1 -11.020445 -2.771753 141.85496105240003 0 0 0
631 1 -10.5963 -4.105029 141.85496105240003 0 0 0
632 1 -9.274987 -6.565627 141.85496105240003 0 0 0
633 1 -8.397848 -7.65565 141.85496105240003 0 0 0
634 1 -6.276889 -9.472777 141.85496105240003 0 0 0
635 1 -5.06522 -10.172334 141.85496105240003 0 0 0
636 1 -2.431063 -11.100575 141.85496105240003 0 0 0
637 1 -1.048507 -11.315188 141.85496105240003 0 0 0
638 1 -11.34211 -0.699557 140.64252605240003 0 0 0
639 1 -11.170175 -2.088068 140.64252605240003 0 0 0
640 1 -10.323493 -4.74956 140.64252605240003 0 0 0
641 1 -9.661581 -5.982198 140.64252605240003 0 0 0
642 1 -7.910632 -8.158109 140.64252605240003 0 0 0
643 1 -6.848137 -9.068399 140.64252605240003 0 0 0
644 1 -4.429395 -10.46486 140.64252605240003 0 0 0
645 1 -3.109814 -10.929862 140.64252605240003 0 0 0
646 1 -0.349945 -11.358273 140.64252605240003 0 0 0
647 1 -11.020445 -2.771753 139.43009005240003 0 0 0
648 1 -10.5963 -4.105029 139.43009005240003 0 0 0
649 1 -9.274987 -6.565627 139.43009005240003 0 0 0
650 1 -8.397848 -7.65565 139.43009005240003 0 0 0
651 1 -6.276889 -9.472777 139.43009005240003 0 0 0
652 1 -5.06522 -10.172334 139.43009005240003 0 0 0
653 1 -2.431063 -11.100575 139.43009005240003 0 0 0
654 1 -1.048507 -11.315188 139.43009005240003 0 0 0
655 1 -11.34211 -0.699557 138.2176540524 0 0 0
656 1 -11.170175 -2.088068 138.2176540524 0 0 0
657 1 -10.323493 -4.74956 138.2176540524 0 0 0
658 1 -9.661581 -5.982198 138.2176540524 0 0 0
659 1 -7.910632 -8.158109 138.2176540524 0 0 0
660 1 -6.848137 -9.068399 138.2176540524 0 0 0
661 1 -4.429395 -10.46486 138.2176540524 0 0 0
662 1 -3.109814 -10.929862 138.2176540524 0 0 0
663 1 -0.349945 -11.358273 138.2176540524 0 0 0
664 1 -11.020445 -2.771753 137.0052190524 0 0 0