LAMMPS (2 Aug 2023 - Update 3)
OMP_NUM_THREADS environment is not set. Defaulting to 1 thread. (src/comm.cpp:98)
  using 1 OpenMP thread(s) per MPI task
Reading data file ...
  orthogonal box = (-100 -100 -2.3312512) to (100 100 41.316429)
  3 by 4 by 1 MPI processor grid
  reading atoms ...
  1824 atoms
  read_data CPU = 0.007 seconds
Replication is creating a 1x1x5 = 5 times larger system...
  orthogonal box = (-100 -100 -2.3312512) to (100 100 215.90715)
  2 by 2 by 3 MPI processor grid
  9120 atoms
  replicate CPU = 0.002 seconds
3000 atoms in group SR
Deleted 3000 atoms, new total = 6120
System init for write_data ...
WARNING: Communication cutoff is 0.0. No ghost atoms will be generated. Atoms may get lost. (src/comm_brick.cpp:210)
Reading airebo potential file CH.airebo with DATE: 2011-10-25
Reading airebo potential file CH.airebo with DATE: 2011-10-25
Reading airebo potential file CH.airebo with DATE: 2011-10-25
Neighbor list info ...
  update: every = 1 steps, delay = 0 steps, check = yes
  max neighbors/atom: 2000, page size: 100000
  master list distance cutoff = 13.2
  ghost atom cutoff = 13.2
  binsize = 6.6, bins = 31 31 34
  6 neighbor lists, perpetual/occasional/extra = 6 0 0
  (1) pair airebo, perpetual, skip from (5)
      attributes: full, newton on, ghost
      pair build: skip/ghost
      stencil: none
      bin: none
  (2) pair airebo, perpetual, skip from (5)
      attributes: full, newton on, ghost
      pair build: skip/ghost
      stencil: none
      bin: none
  (3) pair airebo, perpetual, skip from (5)
      attributes: full, newton on, ghost
      pair build: skip/ghost
      stencil: none
      bin: none
  (4) pair lj/cut, perpetual, skip from (6)
      attributes: half, newton on, cut 13
      pair build: skip
      stencil: none
      bin: none
  (5) neighbor class addition, perpetual
      attributes: full, newton on, ghost
      pair build: full/bin/ghost
      stencil: full/ghost/bin/3d
      bin: standard
  (6) neighbor class addition, perpetual
      attributes: half, newton on, cut 13
      pair build: half/bin/atomonly/newton
      stencil: half/bin/3d
      bin: standard
Setting up sd style minimization ...
  Unit style    : metal
  Current step  : 0
Per MPI rank memory allocation (min/avg/max) = 10.83 | 10.84 | 10.84 Mbytes
   Step          Temp          E_pair         E_mol          TotEng         Press     
         0   0             -45391.804      0             -45391.804     -77.843168    
         1   0             -45391.838      0             -45391.838     -77.708063    
Loop time of 0.141318 on 12 procs for 1 steps with 6120 atoms

78.6% CPU use with 12 MPI tasks x 1 OpenMP threads

Minimization stats:
  Stopping criterion = energy tolerance
  Energy initial, next-to-last, final = 
     -45391.8042072979  -45391.8042072979  -45391.8375640279
  Force two-norm initial, final = 2.8737549 0.74086144
  Force max component initial, final = 0.036762983 0.0094736875
  Final line search alpha, max atom move = 1 0.0094736875
  Iterations, force evaluations = 1 2

MPI task timing breakdown:
Section |  min time  |  avg time  |  max time  |%varavg| %total
---------------------------------------------------------------
Pair    | 0.02006    | 0.02254    | 0.031189   |   1.9 | 15.95
Neigh   | 0          | 0          | 0          |   0.0 |  0.00
Comm    | 0.030836   | 0.039981   | 0.054224   |   3.0 | 28.29
Output  | 0          | 0          | 0          |   0.0 |  0.00
Modify  | 0          | 0          | 0          |   0.0 |  0.00
Other   |            | 0.0788     |            |       | 55.76

Nlocal:            510 ave         540 max         480 min
Histogram: 3 0 0 0 0 6 0 0 0 3
Nghost:           2244 ave        2274 max        2214 min
Histogram: 3 0 0 0 0 6 0 0 0 3
Neighs:              0 ave           0 max           0 min
Histogram: 12 0 0 0 0 0 0 0 0 0

Total # of neighbors = 0
Ave neighs/atom = 0
Neighbor list builds = 0
Dangerous builds = 0
Setting up Verlet run ...
  Unit style    : metal
  Current step  : 1
  Time step     : 0.001
Per MPI rank memory allocation (min/avg/max) = 11.46 | 11.46 | 11.46 Mbytes
   Step          Temp          E_pair         E_mol          TotEng         Press          Volume    
         1   300           -45391.838      0             -45154.555     -48.674905      8729536.1    
Loop time of 0.0239835 on 12 procs for 0 steps with 6120 atoms

52.8% CPU use with 12 MPI tasks x 1 OpenMP threads

MPI task timing breakdown:
Section |  min time  |  avg time  |  max time  |%varavg| %total
---------------------------------------------------------------
Pair    | 0          | 0          | 0          |   0.0 |  0.00
Neigh   | 0          | 0          | 0          |   0.0 |  0.00
Comm    | 0          | 0          | 0          |   0.0 |  0.00
Output  | 0          | 0          | 0          |   0.0 |  0.00
Modify  | 0          | 0          | 0          |   0.0 |  0.00
Other   |            | 0.02398    |            |       |100.00

Nlocal:            510 ave         540 max         480 min
Histogram: 6 0 0 0 0 0 0 0 0 6
Nghost:           2244 ave        2274 max        2214 min
Histogram: 6 0 0 0 0 0 0 0 0 6
Neighs:              0 ave           0 max           0 min
Histogram: 12 0 0 0 0 0 0 0 0 0

Total # of neighbors = 0
Ave neighs/atom = 0
Neighbor list builds = 0
Dangerous builds = 0
WARNING: Dump 2 includes no atom IDs and is not sorted by ID. This may complicate post-processing tasks or visualization (src/dump.cpp:221)
Setting up Verlet run ...
  Unit style    : metal
  Current step  : 0
  Time step     : 0.001
Per MPI rank memory allocation (min/avg/max) = 12.96 | 12.96 | 12.96 Mbytes
   Step         PotEng         KinEng         TotEng           Lx             Ly             Lz      
         0  -45391.838      237.28285     -45154.555      200            200            218.2384     
       100  -45252.659      117.02625     -45135.633      199.98764      199.98742      218.34752    
       200  -45255.08       145.99145     -45109.088      199.97359      199.97345      218.45664    
       300  -45235.141      157.85717     -45077.284      199.98713      199.98653      218.56576    
       400  -45220.09       177.64899     -45042.441      199.98569      199.98541      218.67488    
       500  -45200.032      193.97658     -45006.055      199.96332      199.96323      218.784      
       600  -45182.305      211.9055      -44970.4        199.96984      199.96923      218.89312    
       700  -45165.383      227.48342     -44937.899      199.98075      199.98086      219.00224    
       800  -45150.674      238.43297     -44912.241      199.95725      199.95807      219.11136    
       900  -45147.546      247.2052      -44900.341      199.95047      199.95169      219.22047    
      1000  -45145.918      242.05515     -44903.863      199.96474      199.96661      219.32959    
      1100  -45152.747      235.84842     -44916.899      199.95349      199.95658      219.43871    
      1200  -45157.183      231.13787     -44926.045      199.93637      199.94047      219.54783    
      1300  -45153.769      229.97455     -44923.794      199.94393      199.94934      219.65695    
      1400  -45149.288      238.31331     -44910.974      199.94223      199.94796      219.76607    
      1500  -45142.139      242.20003     -44899.939      199.92255      199.92966      219.87519    
      1600  -45139.888      241.00762     -44898.88       199.92036      199.93013      219.98431    
      1700  -45144.054      237.30987     -44906.744      199.9259       199.9364       220.09343    
      1800  -45145.761      232.56585     -44913.196      199.90762      199.92115      220.20255    
      1900  -45143.917      231.66725     -44912.25       199.89546      199.91362      220.31167    
      2000  -45138.502      234.57149     -44903.931      199.90243      199.92291      220.42079    
      2100  -45132.33       238.9237      -44893.406      199.89034      199.916        220.5299     
      2200  -45129.121      239.60973     -44889.511      199.86974      199.90135      220.63902    
      2300  -45134.465      240.04623     -44894.419      199.87145      199.90687      220.74814    
      2400  -45133.785      233.27639     -44900.508      199.86668      199.90864      220.85726    
      2500  -45133.319      232.69535     -44900.623      199.8447       199.89272      220.96638    
      2600  -45127.428      233.54963     -44893.879      199.83832      199.89122      221.0755     
      2700  -45120.287      235.94104     -44884.346      199.8376       199.89816      221.18462    
      2800  -45122.293      244.04886     -44878.244      199.81912      199.88526      221.29374    
      2900  -45119.456      239.70461     -44879.752      199.80304      199.87499      221.40286    
      3000  -45119.888      235.17368     -44884.714      199.80157      199.88227      221.51198    
      3100  -45120.202      234.6289      -44885.573      199.79154      199.87795      221.6211     
      3200  -45118.183      237.66936     -44880.513      199.77123      199.86439      221.73022    
      3300  -45111.311      238.83914     -44872.471      199.7638       199.86551      221.83934    
      3400  -45104.402      238.66193     -44865.74       199.75814      199.86601      221.94845    
      3500  -45104.481      241.42791     -44863.053      199.73728      199.85435      222.05757    
      3600  -45099.141      233.04261     -44866.099      199.72491      199.84909      222.16669    
      3700  -45102.063      235.13943     -44866.924      199.71688      199.84784      222.27581    
      3800  -45098.142      235.68246     -44862.46       199.69961      199.84057      222.38493    
      3900  -45094.811      239.66631     -44855.145      199.68609      199.83363      222.49405    
      4000  -45084.97       236.21633     -44848.753      199.67573      199.83135      222.60317    
      4100  -45088.629      242.7172      -44845.912      199.66026      199.8243       222.71229    
      4200  -45082.579      235.617       -44846.962      199.64507      199.81549      222.82141    
      4300  -45084.541      236.59822     -44847.943      199.63291      199.81161      222.93053    
      4400  -45077.584      233.01988     -44844.564      199.61895      199.80511      223.03965    
      4500  -45075.018      238.17616     -44836.842      199.60273      199.79558      223.14877    
      4600  -45068.292      238.71679     -44829.575      199.58976      199.79129      223.25788    
      4700  -45066.178      239.98516     -44826.193      199.57693      199.78484      223.367      
      4800  -45067.101      240.32614     -44826.775      199.55885      199.77396      223.47612    
      4900  -45063.049      236.11839     -44826.93       199.54273      199.76511      223.58524    
      5000  -45061.323      238.23798     -44823.085      199.5313       199.75914      223.69436    
      5100  -45055.365      240.13593     -44815.229      199.51578      199.74972      223.80348    
      5200  -45049.015      241.38009     -44807.635      199.49816      199.73801      223.9126     
      5300  -45040.359      236.49055     -44803.868      199.48508      199.72913      224.02172    
      5400  -45041.141      238.47926     -44802.662      199.47057      199.71986      224.13084    
      5500  -45037.828      235.7714      -44802.057      199.45335      199.70719      224.23996    
      5600  -45033.59       234.08972     -44799.5        199.43808      199.69576      224.34908    
      5700  -45028.587      236.06975     -44792.517      199.42329      199.6862       224.4582     
      5800  -45024.283      239.66985     -44784.613      199.40809      199.6742       224.56732    
      5900  -45014.812      236.3465      -44778.465      199.39026      199.66089      224.67643    
      6000  -45014.196      238.47875     -44775.717      199.37443      199.64881      224.78555    
      6100  -45014.581      239.60887     -44774.972      199.35975      199.63611      224.89467    
      6200  -45007.062      234.46304     -44772.598      199.34047      199.62024      225.00379    
      6300  -45000.752      234.75832     -44765.994      199.32361      199.60462      225.11291    
      6400  -44995.696      237.93394     -44757.762      199.31017      199.59276      225.22203    
      6500  -44990.893      239.79942     -44751.093      199.29245      199.57782      225.33115    
      6600  -44986.163      238.52132     -44747.641      199.27273      199.55724      225.44027    
      6700  -44980.682      234.18601     -44746.496      199.25706      199.54333      225.54939    
      6800  -44984.488      240.16199     -44744.326      199.24153      199.53016      225.65851    
      6900  -44976.373      237.81582     -44738.557      199.2207       199.50851      225.76763    
      7000  -44970.52       239.44631     -44731.074      199.20223      199.49258      225.87675    
      7100  -44963.572      239.34639     -44724.226      199.1875       199.47933      225.98587    
      7200  -44956.689      237.99717     -44718.692      199.16675      199.45805      226.09498    
      7300  -44954.44       239.29215     -44715.147      199.1444       199.4383       226.2041     
      7400  -44946.048      233.15467     -44712.893      199.12881      199.42251      226.31322    
      7500  -44943.888      236.28406     -44707.604      199.10877      199.40221      226.42234    
      7600  -44935.008      235.66488     -44699.343      199.08433      199.38003      226.53146    
      7700  -44926.825      235.55797     -44691.267      199.06679      199.36233      226.64058    
      7800  -44924.896      240.11438     -44684.781      199.04748      199.34491      226.7497     
      7900  -44922.37       240.17118     -44682.198      199.02315      199.3222       226.85882    
      8000  -44914.563      234.04663     -44680.517      199.00036      199.30029      226.96794    
      8100  -44911.815      235.96897     -44675.846      198.97885      199.28137      227.07706    
      8200  -44902.572      236.17361     -44666.398      198.95454      199.25902      227.18618    
      8300  -44893.825      237.19495     -44656.63       198.93031      199.23637      227.2953     
      8400  -44891.355      241.34341     -44650.011      198.9078       199.21656      227.40441    
      8500  -44886.161      238.582       -44647.579      198.88228      199.19212      227.51353    
      8600  -44884.798      238.54886     -44646.249      198.85476      199.16683      227.62265    
      8700  -44874.145      234.49748     -44639.648      198.82991      199.14588      227.73177    
      8800  -44865.956      234.98718     -44630.968      198.80447      199.12286      227.84089    
      8900  -44862.013      238.62178     -44623.391      198.77393      199.09729      227.95001    
      9000  -44852.082      236.23408     -44615.848      198.74486      199.07355      228.05913    
      9100  -44850.096      239.92874     -44610.168      198.7198       199.05366      228.16825    
      9200  -44846.234      236.21433     -44610.019      198.68896      199.0294       228.27737    
      9300  -44841.198      235.78625     -44605.412      198.65288      198.99994      228.38649    
      9400  -44832.154      236.74552     -44595.408      198.62312      198.9775       228.49561    
      9500  -44824.345      238.79643     -44585.548      198.59461      198.957        228.60473    
      9600  -44814.204      236.17482     -44578.029      198.55903      198.92843      228.71385    
      9700  -44811.826      239.91783     -44571.908      198.52292      198.90058      228.82296    
      9800  -44804.101      236.39588     -44567.706      198.49111      198.87794      228.93208    
      9900  -44798.771      233.2849      -44565.487      198.45553      198.85171      229.0412     
     10000  -44791.987      234.1523      -44557.835      198.41558      198.82164      229.15032    
     10100  -44781.258      236.57462     -44544.684      198.37982      198.79614      229.25944    
     10200  -44773.42       237.65284     -44535.767      198.34498      198.77279      229.36856    
     10300  -44767.928      238.46506     -44529.463      198.30442      198.7425       229.47768    
     10400  -44762.097      236.79034     -44525.307      198.26315      198.71195      229.5868     
     10500  -44756.102      232.71717     -44523.385      198.22603      198.68608      229.69592    
     10600  -44748.159      232.64715     -44515.512      198.18534      198.65633      229.80504    
     10700  -44737.098      236.32566     -44500.772      198.14165      198.62409      229.91416    
     10800  -44729.178      236.81915     -44492.359      198.10135      198.59465      230.02328    
     10900  -44724.49       238.31584     -44486.174      198.06008      198.56534      230.13239    
     11000  -44718.968      236.92138     -44482.047      198.01573      198.53285      230.24151    
     11100  -44711.45       234.62972     -44476.82       197.97022      198.49967      230.35063    
     11200  -44705.804      238.2766      -44467.527      197.92667      198.46854      230.45975    
     11300  -44690.318      236.67874     -44453.64       197.88351      198.43771      230.56887    
     11400  -44684.032      238.2174      -44445.814      197.83703      198.40365      230.67799    
     11500  -44683.162      241.16748     -44441.995      197.7892       198.36827      230.78711    
     11600  -44671.176      233.31817     -44437.857      197.74374      198.33512      230.89623    
     11700  -44667.294      237.84884     -44429.445      197.69645      198.29956      231.00535    
     11800  -44653.258      233.72585     -44419.532      197.64749      198.26259      231.11447    
     11900  -44645.578      236.0103      -44409.568      197.59967      198.227        231.22359    
     12000  -44635.978      237.5769      -44398.401      197.5515       198.18955      231.33271    
     12100  -44627.25       243.00998     -44384.24       197.50234      198.15144      231.44183    
     12200  -44615.613      237.93029     -44377.683      197.45238      198.11397      231.55094    
     12300  -44614.333      239.03204     -44375.301      197.40168      198.07346      231.66006    
     12400  -44607.743      238.00818     -44369.735      197.35059      198.03447      231.76918    
     12500  -44598.053      235.00936     -44363.044      197.30067      197.99437      231.8783     
     12600  -44595.124      239.53599     -44355.588      197.25003      197.9539       231.98742    
     12700  -44583.575      237.82864     -44345.746      197.19766      197.9114       232.09654    
     12800  -44571.217      238.98768     -44332.23       197.14601      197.86824      232.20566    
     12900  -44563.053      240.72787     -44322.325      197.09591      197.82701      232.31478    
     13000  -44553.888      236.26612     -44317.622      197.04359      197.78304      232.4239     
     13100  -44549.604      235.38975     -44314.214      196.99174      197.73795      232.53302    
     13200  -44539.546      234.60765     -44304.939      196.9403       197.69406      232.64214    
     13300  -44529.073      235.81715     -44293.256      196.88815      197.64848      232.75126    
     13400  -44517.056      235.8853      -44281.17       196.83525      197.60227      232.86037    
     13500  -44512.629      240.50131     -44272.128      196.7842       197.55705      232.96949    
     13600  -44506.589      236.09888     -44270.491      196.73295      197.51142      233.07861    
     13700  -44500.273      236.87219     -44263.401      196.67937      197.46305      233.18773    
     13800  -44489.78       238.64247     -44251.138      196.62681      197.41543      233.29685    
     13900  -44473.905      236.21023     -44237.694      196.5759       197.3693       233.40597    
     14000  -44466.798      239.04819     -44227.749      196.52283      197.31976      233.51509    
     14100  -44455.846      235.68947     -44220.157      196.46909      197.27113      233.62421    
     14200  -44452.4        239.29578     -44213.104      196.4185       197.22418      233.73333    
     14300  -44443.465      231.7214      -44211.744      196.36663      197.1761       233.84245    
     14400  -44435.277      233.45311     -44201.824      196.31101      197.12537      233.95157    
     14500  -44424.668      237.4268      -44187.241      196.25871      197.07695      234.06069    
     14600  -44411.133      236.42702     -44174.706      196.20897      197.03244      234.16981    
     14700  -44400.577      237.41839     -44163.159      196.15541      196.98349      234.27892    
     14800  -44389.334      235.92807     -44153.406      196.10094      196.93346      234.38804    
     14900  -44385.347      237.84621     -44147.501      196.04964      196.88806      234.49716    
     15000  -44375.202      233.13933     -44142.063      195.99862      196.84164      234.60628    
     15100  -44364.818      234.5443      -44130.273      195.9442       196.79164      234.7154     
     15200  -44354.781      239.55723     -44115.224      195.89205      196.7463       234.82452    
     15300  -44345.318      240.67675     -44104.642      195.8432       196.7023       234.93364    
     15400  -44334.182      237.4285      -44096.753      195.79025      196.65585      235.04276    
     15500  -44326.653      237.27572     -44089.378      195.73615      196.60847      235.15188    
     15600  -44320.403      238.73673     -44081.666      195.68677      196.56519      235.261      
     15700  -44308.357      232.764       -44075.593      195.63582      196.52265      235.37012    
     15800  -44298.365      234.88454     -44063.48       195.58215      196.47596      235.47924    
     15900  -44286.895      239.39681     -44047.498      195.53248      196.43407      235.58835    
     16000  -44276.738      241.72032     -44035.018      195.48396      196.39465      235.69747    
     16100  -44261.983      237.57635     -44024.406      195.43211      196.35066      235.80659    
     16200  -44252.591      235.90859     -44016.682      195.37998      196.30774      235.91571    
     16300  -44243.77       231.81229     -44011.958      195.33274      196.26929      236.02483    
     16400  -44235.908      234.23747     -44001.67       195.28376      196.23005      236.13395    
     16500  -44220.506      234.17715     -43986.329      195.23166      196.18906      236.24307    
     16600  -44210.629      236.22191     -43974.407      195.18362      196.1513       236.35219    
     16700  -44203.665      239.59343     -43964.071      195.13738      196.11591      236.46131    
     16800  -44191.054      237.41207     -43953.642      195.08702      196.07761      236.57043    
     16900  -44178.496      235.97324     -43942.522      195.03837      196.03983      236.67955    
     17000  -44165.164      233.90043     -43931.263      194.99533      196.00802      236.78867    
     17100  -44159.628      238.19301     -43921.435      194.95023      195.97454      236.89779    
     17200  -44150.436      236.58488     -43913.851      194.90052      195.93611      237.0069     
     17300  -44141.028      235.54408     -43905.484      194.85552      195.90307      237.11602    
     17400  -44127.235      233.85491     -43893.38       194.81523      195.87427      237.22514    
     17500  -44116.564      240.26784     -43876.296      194.77021      195.84014      237.33426    
     17600  -44102.317      238.09274     -43864.224      194.72336      195.80589      237.44338    
     17700  -44091.871      235.82628     -43856.045      194.68412      195.777        237.5525     
     17800  -44086.42       237.88343     -43848.537      194.64378      195.7481       237.66162    
     17900  -44072.1        233.50442     -43838.595      194.59899      195.71506      237.77074    
     18000  -44059.4        236.13462     -43823.265      194.55962      195.68484      237.87986    
     18100  -44044.268      236.69042     -43807.577      194.52305      195.65976      237.98898    
     18200  -44036.207      239.47231     -43796.735      194.48454      195.62991      238.0981     
     18300  -44027.273      237.15941     -43790.114      194.44425      195.5984       238.20722    
     18400  -44020.088      237.72578     -43782.363      194.40872      195.57328      238.31633    
     18500  -44005.463      235.62955     -43769.834      194.37383      195.54545      238.42545    
     18600  -43990.81       235.26421     -43755.546      194.33692      195.51562      238.53457    
     18700  -43981.297      238.25952     -43743.038      194.30333      195.49065      238.64369    
     18800  -43966.657      234.5214      -43732.135      194.27248      195.46592      238.75281    
     18900  -43956.853      235.67303     -43721.18       194.23669      195.437        238.86193    
     19000  -43945.442      235.77484     -43709.667      194.20368      195.41071      238.97105    
     19100  -43937.126      238.17729     -43698.948      194.17747      195.38936      239.08017    
     19200  -43922.609      233.9941      -43688.615      194.14626      195.36354      239.18929    
     19300  -43916.795      240.15904     -43676.636      194.11318      195.33513      239.29841    
     19400  -43898.398      236.02744     -43662.371      194.08841      195.31276      239.40753    
     19500  -43884.301      237.56618     -43646.735      194.06277      195.29195      239.51665    
     19600  -43872.358      238.78335     -43633.575      194.03155      195.26301      239.62577    
     19700  -43864.202      236.42192     -43627.78       194.00417      195.23692      239.73488    
     19800  -43851.81       232.63984     -43619.17       193.98223      195.21793      239.844      
     19900  -43839.006      233.35785     -43605.648      193.95822      195.19437      239.95312    
     20000  -43829.036      239.7353      -43589.301      193.92939      195.16655      240.06224    
     20100  -43815.306      239.37427     -43575.932      193.90677      195.14466      240.17136    
     20200  -43800.832      235.6794      -43565.152      193.88891      195.1259       240.28048    
     20300  -43791.305      237.16957     -43554.135      193.86382      195.10122      240.3896     
     20400  -43780.671      236.77367     -43543.897      193.84057      195.07644      240.49872    
     20500  -43768.759      236.19132     -43532.568      193.82306      195.05661      240.60784    
     20600  -43756.539      239.16964     -43517.369      193.80263      195.03505      240.71696    
     20700  -43739.995      238.51576     -43501.479      193.7807       195.00986      240.82608    
     20800  -43732.204      242.48034     -43489.723      193.7624       194.98869      240.9352     
     20900  -43719.952      237.80883     -43482.143      193.7443       194.96962      241.04431    
     21000  -43707.274      234.43191     -43472.842      193.72592      194.94611      241.15343    
     21100  -43694.556      234.57443     -43459.981      193.70667      194.92577      241.26255    
     21200  -43681.577      238.53009     -43443.047      193.68999      194.9055       241.37167    
     21300  -43666.659      240.62368     -43426.035      193.67249      194.88391      241.48079    
     21400  -43652.216      237.07502     -43415.141      193.65428      194.86457      241.58991    
     21500  -43640.323      233.86099     -43406.462      193.63976      194.84461      241.69903    
     21600  -43628.542      232.45692     -43396.085      193.62083      194.82434      241.80815    
     21700  -43619.49       237.83831     -43381.651      193.60258      194.80324      241.91727    
     21800  -43602.107      238.47957     -43363.627      193.58939      194.78564      242.02639    
     21900  -43588.335      238.12596     -43350.209      193.57365      194.76933      242.13551    
     22000  -43576.692      237.62502     -43339.067      193.55345      194.74591      242.24463    
     22100  -43568.158      239.55778     -43328.601      193.53774      194.72707      242.35375    
     22200  -43552.487      236.26265     -43316.224      193.5251       194.71417      242.46286    
     22300  -43542.315      239.25263     -43303.063      193.50792      194.69426      242.57198    
     22400  -43527.348      237.92769     -43289.421      193.48793      194.67333      242.6811     
     22500  -43513.42       239.69813     -43273.722      193.47421      194.65943      242.79022    
     22600  -43499.158      241.43329     -43257.725      193.46234      194.64498      242.89934    
     22700  -43485.386      238.35387     -43247.032      193.4424       194.62681      243.00846    
     22800  -43475.388      235.74309     -43239.645      193.42337      194.60753      243.11758    
     22900  -43466.302      239.22916     -43227.073      193.41038      194.59399      243.2267     
     23000  -43447.466      235.67415     -43211.792      193.39423      194.58153      243.33582    
     23100  -43434.318      240.0387      -43194.28       193.37449      194.56167      243.44494    
     23200  -43417.293      238.07049     -43179.222      193.35768      194.54822      243.55406    
     23300  -43408.447      239.12594     -43169.321      193.3433       194.53769      243.66318    
     23400  -43395.586      234.32544     -43161.261      193.32538      194.52036      243.77229    
     23500  -43383.169      235.60567     -43147.564      193.3033       194.50496      243.88141    
     23600  -43365.94       236.79061     -43129.149      193.2893       194.49336      243.99053    
     23700  -43351.139      238.12571     -43113.013      193.27398      194.48197      244.09965    
     23800  -43339.272      239.02216     -43100.25       193.2518       194.46722      244.20877    
     23900  -43328.732      236.88174     -43091.85       193.23478      194.45264      244.31789    
     24000  -43319.225      237.49208     -43081.733      193.21779      194.44313      244.42701    
     24100  -43302.668      236.04679     -43066.621      193.19896      194.43054      244.53613    
     24200  -43287.584      237.46812     -43050.116      193.17879      194.41592      244.64525    
     24300  -43271.12       237.9285      -43033.191      193.16031      194.40725      244.75437    
     24400  -43252.895      235.57404     -43017.321      193.14272      194.39568      244.86349    
     24500  -43244.411      239.4567      -43004.954      193.12206      194.3832       244.97261    
     24600  -43237.806      239.51704     -42998.289      193.10185      194.37333      245.08173    
     24700  -43220.371      235.25256     -42985.118      193.08553      194.36212      245.19084    
     24800  -43204.836      238.05882     -42966.777      193.06403      194.35114      245.29996    
     24900  -43188.849      238.42882     -42950.42       193.04421      194.33955      245.40908    
     25000  -43174.597      237.94428     -42936.653      193.0276       194.32963      245.5182     
     25100  -43161.208      238.2973      -42922.91       193.00513      194.31893      245.62732    
     25200  -43145.734      237.75605     -42907.978      192.9845       194.30446      245.73644    
     25300  -43128.784      238.15437     -42890.63       192.96577      194.29578      245.84556    
     25400  -43114.15       237.97206     -42876.178      192.94784      194.28744      245.95468    
     25500  -43104.087      238.49014     -42865.596      192.9263       194.2718       246.0638     
     25600  -43094.502      238.00455     -42856.498      192.9046       194.26054      246.17292    
     25700  -43075.862      233.19526     -42842.667      192.8894       194.252        246.28204    
     25800  -43063.168      237.43361     -42825.735      192.86988      194.23936      246.39116    
     25900  -43048.978      238.7941      -42810.184      192.8465       194.22542      246.50027    
     26000  -43029.566      234.38789     -42795.179      192.83002      194.213        246.60939    
     26100  -43016.333      236.17531     -42780.158      192.81383      194.20405      246.71851    
     26200  -43006.268      241.78168     -42764.486      192.79266      194.18919      246.82763    
     26300  -42987.778      239.21504     -42748.563      192.77329      194.17315      246.93675    
     26400  -42974.887      239.23601     -42735.651      192.75578      194.16312      247.04587    
     26500  -42960.829      235.1123      -42725.717      192.73896      194.14861      247.15499    
     26600  -42948.601      235.47523     -42713.125      192.71822      194.13256      247.26411    
     26700  -42933.284      238.35553     -42694.929      192.70105      194.1198       247.37323    
     26800  -42909.808      235.15455     -42674.653      192.68689      194.10613      247.48235    
     26900  -42899.62       239.0456      -42660.574      192.66581      194.0892       247.59147    
     27000  -42889.684      240.1739      -42649.51       192.64802      194.0716       247.70059    
     27100  -42871.652      233.35262     -42638.299      192.63441      194.05911      247.80971    
     27200  -42858.364      235.96783     -42622.397      192.61688      194.04421      247.91882    
     27300  -42843.273      243.45732     -42599.816      192.59802      194.0231       248.02794    
     27400  -42822.761      237.58504     -42585.176      192.58081      194.00723      248.13706    
     27500  -42812.529      237.76662     -42574.762      192.56769      193.99332      248.24618    
     27600  -42802.712      239.11218     -42563.6        192.55159      193.97567      248.3553     
     27700  -42785.218      236.57679     -42548.641      192.53122      193.95586      248.46442    
     27800  -42768.595      237.29827     -42531.296      192.51625      193.93753      248.57354    
     27900  -42751.713      239.25053     -42512.462      192.5034       193.92304      248.68266    
     28000  -42734.232      244.26219     -42489.97       192.48615      193.90418      248.79178    
     28100  -42717.913      240.09267     -42477.821      192.46912      193.8823       248.9009     
     28200  -42706.258      238.45524     -42467.803      192.45389      193.86536      249.01002    
     28300  -42693.994      237.35421     -42456.64       192.43982      193.84655      249.11914    
     28400  -42677.166      233.60608     -42443.56       192.42253      193.82551      249.22825    
     28500  -42666.482      239.45377     -42427.028      192.40604      193.80575      249.33737    
     28600  -42645.624      240.25834     -42405.366      192.3923       193.78615      249.44649    
     28700  -42629.555      240.10335     -42389.452      192.37513      193.7663       249.55561    
     28800  -42616.623      239.15171     -42377.471      192.35828      193.74487      249.66473    
     28900  -42599.655      234.49269     -42365.162      192.34325      193.72511      249.77385    
     29000  -42587.411      236.87542     -42350.535      192.32806      193.70643      249.88297    
     29100  -42573.431      238.67456     -42334.756      192.31208      193.6845       249.99209    
     29200  -42553.158      234.38207     -42318.776      192.29365      193.66237      250.10121    
     29300  -42540.723      238.09461     -42302.629      192.27785      193.64193      250.21033    
     29400  -42525.658      238.80108     -42286.857      192.26459      193.623        250.31945    
     29500  -42509.878      236.84756     -42273.031      192.24674      193.6018       250.42857    
     29600  -42497.882      237.87693     -42260.005      192.22609      193.57565      250.53769    
     29700  -42481.001      235.97575     -42245.025      192.20975      193.55598      250.6468     
     29800  -42466.024      240.30912     -42225.715      192.19646      193.5389       250.75592    
     29900  -42444.679      238.54755     -42206.132      192.17633      193.51488      250.86504    
     30000  -42430.87       239.51772     -42191.352      192.15411      193.4907       250.97416    
     30100  -42415.023      236.21773     -42178.806      192.13965      193.47242      251.08328    
     30200  -42402.068      234.99432     -42167.074      192.12329      193.45367      251.1924     
     30300  -42390.88       232.83198     -42158.048      192.10068      193.42915      251.30152    
     30400  -42373.346      229.65498     -42143.691      192.08064      193.40591      251.41064    
     30500  -42353.318      231.75619     -42121.562      192.06336      193.38888      251.51976    
     30600  -42336.099      234.55796     -42101.541      192.04512      193.36776      251.62888    
     30700  -42323.37       241.30208     -42082.068      192.02128      193.34395      251.738      
     30800  -42302.57       237.89849     -42064.671      191.99945      193.32333      251.84712    
     30900  -42290.297      239.52377     -42050.773      191.98246      193.30504      251.95623    
     31000  -42276.258      235.33413     -42040.924      191.959        193.28485      252.06535    
     31100  -42261.522      234.67742     -42026.845      191.93406      193.26029      252.17447    
     31200  -42243.529      235.30034     -42008.229      191.91277      193.24137      252.28359    
     31300  -42226.97       236.6139      -41990.356      191.89279      193.22506      252.39271    
     31400  -42209.861      236.26916     -41973.592      191.86845      193.20234      252.50183    
     31500  -42194.257      238.06693     -41956.19       191.83976      193.17976      252.61095    
     31600  -42172.039      235.33115     -41936.708      191.81972      193.1618       252.72007    
     31700  -42155.809      239.2947      -41916.514      191.79874      193.14586      252.82919    
     31800  -42145.192      241.49596     -41903.696      191.76987      193.1228       252.93831    
     31900  -42131.825      237.89893     -41893.926      191.74243      193.09912      253.04743    
     32000  -42113.813      235.32302     -41878.49       191.71914      193.08399      253.15655    
     32100  -42097.944      237.78596     -41860.158      191.69513      193.0647       253.26567    
     32200  -42077.268      236.88519     -41840.382      191.66592      193.04234      253.37478    
     32300  -42059.745      237.45914     -41822.286      191.63903      193.02315      253.4839     
     32400  -42047.48       237.9096      -41809.571      191.61519      193.00481      253.59302    
     32500  -42036.769      237.3338      -41799.435      191.58662      192.98491      253.70214    
     32600  -42018.19       234.80528     -41783.384      191.55741      192.9625       253.81126    
     32700  -42000.946      237.98598     -41762.96       191.5317       192.94445      253.92038    
     32800  -41981.915      237.74233     -41744.173      191.50601      192.92752      254.0295     
     32900  -41968.415      239.75772     -41728.657      191.47581      192.90411      254.13862    
     33000  -41952.298      238.41124     -41713.887      191.44449      192.88156      254.24774    
     33100  -41933.675      235.45881     -41698.216      191.41925      192.86417      254.35686    
     33200  -41917.782      235.85844     -41681.923      191.39219      192.84465      254.46598    
     33300  -41901.536      237.10019     -41664.436      191.35907      192.82071      254.5751     
     33400  -41885.359      241.51432     -41643.844      191.33089      192.79892      254.68421    
     33500  -41863.337      238.80135     -41624.536      191.30582      192.78258      254.79333    
     33600  -41850.63       237.67161     -41612.958      191.27654      192.76053      254.90245    
     33700  -41836.453      235.04818     -41601.405      191.24348      192.73325      255.01157    
     33800  -41821.52       237.11708     -41584.403      191.21515      192.71308      255.12069    
     33900  -41806.694      241.69449     -41565          191.19243      192.69465      255.22981    
     34000  -41785.171      240.24851     -41544.923      191.16065      192.66993      255.33893    
     34100  -41766.832      239.74546     -41527.086      191.12717      192.64187      255.44805    
     34200  -41750.183      234.42724     -41515.756      191.10255      192.62078      255.55717    
     34300  -41741.013      237.52846     -41503.485      191.07618      192.601        255.66629    
     34400  -41721.71       235.39725     -41486.313      191.04554      192.57272      255.77541    
     34500  -41700.688      235.68155     -41465.006      191.01478      192.54622      255.88453    
     34600  -41685.047      239.07243     -41445.975      190.98949      192.5245       255.99365    
     34700  -41667.552      237.29263     -41430.259      190.96338      192.49978      256.10276    
     34800  -41652.926      237.18689     -41415.739      190.93191      192.47151      256.21188    
     34900  -41635.412      235.0445      -41400.368      190.90428      192.44426      256.321      
     35000  -41619.022      235.65093     -41383.371      190.87899      192.42095      256.43012    
     35100  -41603.614      238.47543     -41365.139      190.85136      192.39295      256.53924    
     35200  -41584.362      238.06303     -41346.299      190.82214      192.36297      256.64836    
     35300  -41566.104      239.10873     -41326.995      190.79476      192.33625      256.75748    
     35400  -41546.818      239.7425      -41307.076      190.76949      192.30946      256.8666     
     35500  -41532.379      239.68158     -41292.697      190.74182      192.28104      256.97572    
     35600  -41517.548      235.49638     -41282.052      190.71385      192.25096      257.08484    
     35700  -41501.915      235.76241     -41266.152      190.68706      192.2215       257.19396    
     35800  -41483.918      237.12905     -41246.788      190.66101      192.19414      257.30308    
     35900  -41464.094      238.67986     -41225.415      190.63494      192.16372      257.41219    
     36000  -41448.175      240.58218     -41207.593      190.60722      192.13307      257.52131    
     36100  -41431.797      236.34917     -41195.448      190.58118      192.10347      257.63043    
     36200  -41415.799      232.3534      -41183.446      190.55514      192.07219      257.73955    
     36300  -41401.427      235.88772     -41165.539      190.52728      192.04111      257.84867    
     36400  -41384.726      240.19981     -41144.526      190.50121      192.00897      257.95779    
     36500  -41360.468      236.0849      -41124.383      190.47529      191.97831      258.06691    
     36600  -41348.195      241.63211     -41106.563      190.44801      191.94644      258.17603    
     36700  -41328.666      235.23997     -41093.426      190.42169      191.91448      258.28515    
     36800  -41318.402      237.55236     -41080.85       190.39422      191.88331      258.39427    
     36900  -41295.567      232.80474     -41062.763      190.36753      191.8498       258.50339    
     37000  -41279.179      237.06309     -41042.116      190.34031      191.81915      258.61251    
     37100  -41261.929      237.90307     -41024.026      190.31377      191.78712      258.72163    
     37200  -41241.429      234.60647     -41006.822      190.28745      191.75523      258.83074    
     37300  -41226.687      237.4757      -40989.211      190.25981      191.72374      258.93986    
     37400  -41207.091      236.65173     -40970.439      190.23301      191.69045      259.04898    
     37500  -41191.766      240.85509     -40950.911      190.2044       191.65916      259.1581     
     37600  -41174.183      241.08846     -40933.095      190.17739      191.62647      259.26722    
     37700  -41155.224      234.44545     -40920.779      190.15038      191.59464      259.37634    
     37800  -41140.841      233.3126      -40907.528      190.12121      191.56292      259.48546    
     37900  -41125.298      235.73647     -40889.562      190.09293      191.52902      259.59458    
     38000  -41105.019      236.61017     -40868.409      190.06351      191.49848      259.7037     
     38100  -41089.156      239.79865     -40849.357      190.03671      191.46785      259.81282    
     38200  -41070.26       237.05814     -40833.202      190.00842      191.43693      259.92194    
     38300  -41052.57       235.55742     -40817.013      189.97551      191.40313      260.03106    
     38400  -41033.893      234.05329     -40799.84       189.94604      191.37081      260.14017    
     38500  -41019.344      239.32906     -40780.015      189.91846      191.3431       260.24929    
     38600  -40997.392      237.94497     -40759.447      189.88884      191.31217      260.35841    
     38700  -40980.262      238.88022     -40741.382      189.85443      191.27774      260.46753    
     38800  -40967.463      237.95095     -40729.512      189.82346      191.24822      260.57665    
     38900  -40948.318      232.3839      -40715.934      189.79732      191.22176      260.68577    
     39000  -40933.697      236.79702     -40696.9        189.76476      191.19147      260.79489    
     39100  -40916.602      240.65067     -40675.951      189.72971      191.15887      260.90401    
     39200  -40894.304      237.18774     -40657.116      189.69992      191.13128      261.01313    
     39300  -40879.804      239.55259     -40640.251      189.67007      191.10533      261.12225    
     39400  -40863.022      239.49482     -40623.527      189.63551      191.0734       261.23137    
     39500  -40845.533      238.65358     -40606.879      189.60115      191.04408      261.34049    
     39600  -40824.234      233.92797     -40590.307      189.57128      191.01849      261.44961    
     39700  -40807.585      233.36571     -40574.219      189.53887      190.99061      261.55872    
     39800  -40793.72       237.44058     -40556.279      189.5021       190.95972      261.66784    
     39900  -40772.926      237.34063     -40535.585      189.469        190.93102      261.77696    
     40000  -40752.834      238.33688     -40514.497      189.43725      190.90638      261.88608    
     40100  -40731.607      234.7325      -40496.874      189.40322      190.87807      261.9952     
     40200  -40720.091      234.83277     -40485.259      189.3667       190.8484       262.10432    
     40300  -40706.153      235.22591     -40470.927      189.33417      190.8225       262.21344    
     40400  -40688.614      238.0064      -40450.607      189.30331      190.79856      262.32256    
     40500  -40666.866      236.7081      -40430.158      189.26757      190.77162      262.43168    
     40600  -40651.564      240.54637     -40411.017      189.23103      190.74117      262.5408     
     40700  -40629.319      235.37959     -40393.939      189.19861      190.71805      262.64992    
     40800  -40616.902      239.43023     -40377.472      189.16777      190.69365      262.75904    
     40900  -40598.423      237.78855     -40360.634      189.13001      190.66411      262.86815    
     41000  -40581.077      236.89097     -40344.186      189.09407      190.63575      262.97727    
     41100  -40560.522      235.37531     -40325.146      189.06449      190.6127       263.08639    
     41200  -40542.94       239.41802     -40303.522      189.03089      190.58756      263.19551    
     41300  -40519.095      235.07728     -40284.017      188.99414      190.55633      263.30463    
     41400  -40512.297      242.85038     -40269.446      188.96003      190.53107      263.41375    
     41500  -40488.433      231.2889      -40257.144      188.93104      190.50837      263.52287    
     41600  -40473.629      234.60664     -40239.023      188.89566      190.4805       263.63199    
     41700  -40456.72       238.68843     -40218.031      188.85795      190.44996      263.74111    
     41800  -40435.559      237.10275     -40198.456      188.82836      190.42574      263.85023    
     41900  -40421.187      240.9883      -40180.199      188.79852      190.40376      263.95935    
     42000  -40396.618      234.02949     -40162.588      188.76419      190.37342      264.06847    
     42100  -40384.233      238.96814     -40145.264      188.72945      190.34445      264.17759    
     42200  -40362.25       233.69527     -40128.555      188.70059      190.32055      264.2867     
     42300  -40347.77       237.12956     -40110.64       188.67144      190.29459      264.39582    
     42400  -40325.904      234.65513     -40091.249      188.63811      190.26539      264.50494    
     42500  -40311.794      241.69917     -40070.095      188.60693      190.23688      264.61406    
     42600  -40291.111      240.40908     -40050.702      188.57906      190.21196      264.72318    
     42700  -40276.045      238.68155     -40037.364      188.54961      190.18559      264.8323     
     42800  -40256.989      233.09189     -40023.897      188.51841      190.15561      264.94142    
     42900  -40240.098      235.45452     -40004.643      188.48756      190.12728      265.05054    
     43000  -40221.264      238.86396     -39982.4        188.45973      190.10035      265.15966    
     43100  -40200.821      237.5306      -39963.29       188.43212      190.07433      265.26878    
     43200  -40185.985      239.44677     -39946.538      188.40204      190.04495      265.3779     
     43300  -40168.455      238.51647     -39929.938      188.3724       190.0141       265.48702    
     43400  -40149.589      236.78757     -39912.801      188.34522      189.98705      265.59613    
     43500  -40130.1        234.12283     -39895.978      188.31989      189.96023      265.70525    
     43600  -40113.118      235.83435     -39877.283      188.29245      189.93096      265.81437    
     43700  -40093.255      238.13033     -39855.125      188.26415      189.90028      265.92349    
     43800  -40075.992      241.33699     -39834.655      188.24007      189.87306      266.03261    
     43900  -40055.731      235.64018     -39820.091      188.21572      189.84687      266.14173    
     44000  -40042.889      235.39724     -39807.491      188.18875      189.81436      266.25085    
     44100  -40026.615      237.66495     -39788.95       188.16144      189.78547      266.35997    
     44200  -40004.845      236.43815     -39768.407      188.13995      189.75856      266.46909    
     44300  -39986.627      239.35848     -39747.268      188.11508      189.73022      266.57821    
     44400  -39962.798      235.06947     -39727.729      188.0874       189.69774      266.68733    
     44500  -39949.916      238.4725      -39711.444      188.06342      189.66917      266.79645    
     44600  -39935.264      235.11012     -39700.154      188.04256      189.64356      266.90557    
     44700  -39916.725      235.12839     -39681.597      188.01865      189.6138       267.01468    
     44800  -39894.327      236.3227      -39658.004      187.99102      189.58172      267.1238     
     44900  -39876.59       239.23746     -39637.353      187.96865      189.55316      267.23292    
     45000  -39855.975      236.00856     -39619.967      187.94889      189.52833      267.34204    
     45100  -39842.001      236.25782     -39605.743      187.92469      189.49792      267.45116    
     45200  -39825.274      232.53257     -39592.741      187.89847      189.46625      267.56028    
     45300  -39807.9        235.56577     -39572.335      187.87747      189.43946      267.6694     
     45400  -39787.732      236.80881     -39550.923      187.85829      189.41416      267.77852    
     45500  -39766.981      237.01208     -39529.968      187.8337       189.38551      267.88764    
     45600  -39748.276      238.35653     -39509.919      187.80957      189.35469      267.99676    
     45700  -39728.512      236.1742      -39492.337      187.78777      189.3297       268.10588    
     45800  -39713.293      233.20178     -39480.091      187.76703      189.30232      268.215      
     45900  -39696.384      233.08256     -39463.301      187.74352      189.27446      268.32411    
     46000  -39674.994      233.42919     -39441.564      187.72139      189.2479       268.43323    
     46100  -39655.759      237.18168     -39418.577      187.69956      189.22082      268.54235    
     46200  -39640.201      239.93717     -39400.263      187.67663      189.19532      268.65147    
     46300  -39621.92       237.83678     -39384.083      187.6561       189.16933      268.76059    
     46400  -39604.069      235.73479     -39368.334      187.63305      189.14323      268.86971    
     46500  -39584.943      234.42212     -39350.52       187.60856      189.11612      268.97883    
     46600  -39568.177      238.47723     -39329.699      187.58744      189.09171      269.08795    
     46700  -39546.561      239.64204     -39306.919      187.56558      189.06807      269.19707    
     46800  -39525.484      236.83879     -39288.645      187.54152      189.0413       269.30619    
     46900  -39513.26       238.24135     -39275.018      187.51795      189.01685      269.41531    
     47000  -39494.828      235.89125     -39258.937      187.4971       188.99472      269.52443    
     47100  -39476.405      236.89176     -39239.513      187.47513      188.97142      269.63355    
     47200  -39455.325      236.1379      -39219.188      187.45017      188.94644      269.74266    
     47300  -39439.462      239.56363     -39199.899      187.42855      188.92371      269.85178    
     47400  -39418.274      235.24049     -39183.034      187.40756      188.90402      269.9609     
     47500  -39404.723      231.97579     -39172.747      187.38277      188.87851      270.07002    
     47600  -39387.363      233.48426     -39153.878      187.35821      188.85593      270.17914    
     47700  -39360.069      230.81645     -39129.253      187.33799      188.83701      270.28826    
     47800  -39346.241      239.12156     -39107.12       187.31506      188.81599      270.39738    
     47900  -39326.97       238.75478     -39088.215      187.28817      188.79302      270.5065     
     48000  -39307.571      235.07899     -39072.492      187.26452      188.77126      270.61562    
     48100  -39293.786      234.98457     -39058.802      187.24272      188.75379      270.72474    
     48200  -39275.871      235.31477     -39040.556      187.21864      188.73339      270.83386    
     48300  -39251.83       236.48183     -39015.348      187.19189      188.71116      270.94298    
     48400  -39229.166      235.36864     -38993.797      187.16859      188.69273      271.05209    
     48500  -39215.735      237.77952     -38977.956      187.14833      188.67592      271.16121    
     48600  -39199.271      236.42587     -38962.845      187.12258      188.65665      271.27033    
     48700  -39181.959      236.25038     -38945.709      187.09624      188.63515      271.37945    
     48800  -39161.046      234.55653     -38926.489      187.07378      188.61849      271.48857    
     48900  -39143.458      240.42423     -38903.033      187.05269      188.60375      271.59769    
     49000  -39122.002      240.31644     -38881.685      187.02652      188.58293      271.70681    
     49100  -39104.769      238.18139     -38866.588      187.00016      188.56358      271.81593    
     49200  -39088.785      236.36581     -38852.419      186.97892      188.5481       271.92505    
     49300  -39069.582      236.13853     -38833.443      186.95647      188.53313      272.03417    
     49400  -39047.884      235.24335     -38812.641      186.92956      188.51144      272.14329    
     49500  -39030.894      240.27335     -38790.621      186.90436      188.49399      272.25241    
     49600  -39009.827      241.33466     -38768.492      186.88441      188.48011      272.36153    
     49700  -38989.826      236.24171     -38753.584      186.86134      188.4627       272.47064    
     49800  -38977.002      236.90177     -38740.1        186.83398      188.44229      272.57976    
     49900  -38958.875      236.80895     -38722.066      186.81095      188.42471      272.68888    
     50000  -38940.491      238.2795      -38702.212      186.79058      188.41256      272.798      
     50100  -38917.685      237.53468     -38680.15       186.76721      188.39417      272.90712    
     50200  -38898.718      239.42558     -38659.293      186.74119      188.37341      273.01624    
     50300  -38881.916      238.43131     -38643.484      186.71814      188.35792      273.12536    
     50400  -38866.279      236.51323     -38629.766      186.69886      188.34368      273.23448    
     50500  -38847.74       236.2657      -38611.474      186.67522      188.32696      273.3436     
     50600  -38830.752      240.11597     -38590.636      186.65219      188.30705      273.45272    
     50700  -38807.252      239.95494     -38567.297      186.62973      188.29147      273.56184    
     50800  -38791.492      246.2835      -38545.209      186.60985      188.27533      273.67096    
     50900  -38770.267      238.10867     -38532.158      186.58831      188.25852      273.78008    
     51000  -38748.83       232.49266     -38516.338      186.56612      188.24083      273.88919    
     51100  -38733.806      236.07332     -38497.733      186.54463      188.2222       273.99831    
     51200  -38715.187      237.27619     -38477.911      186.52462      188.20561      274.10743    
     51300  -38695.813      239.25417     -38456.559      186.50518      188.18981      274.21655    
     51400  -38675.182      240.22295     -38434.959      186.48262      188.17079      274.32567    
     51500  -38660.406      241.67097     -38418.735      186.46156      188.15089      274.43479    
     51600  -38643.448      238.81128     -38404.637      186.44389      188.13531      274.54391    
     51700  -38622.922      236.47627     -38386.446      186.42483      188.1192       274.65303    
     51800  -38602.62       236.17642     -38366.444      186.40302      188.09754      274.76215    
     51900  -38581.518      239.09555     -38342.422      186.3825       188.07852      274.87127    
     52000  -38562.651      242.98709     -38319.663      186.3679       188.06311      274.98039    
     52100  -38545.721      240.4503      -38305.271      186.34969      188.0458       275.08951    
     52200  -38525.817      236.72732     -38289.09       186.32938      188.02405      275.19862    
     52300  -38507.457      235.31898     -38272.138      186.31143      188.00441      275.30774    
     52400  -38494.317      239.07949     -38255.237      186.29682      187.98872      275.41686    
     52500  -38474.503      237.14218     -38237.361      186.28009      187.96941      275.52598    
     52600  -38454.604      235.56593     -38219.038      186.25996      187.94655      275.6351     
     52700  -38432.969      236.81544     -38196.154      186.24287      187.92736      275.74422    
     52800  -38413.234      240.27617     -38172.958      186.22942      187.91082      275.85334    
     52900  -38394.584      240.1176      -38154.466      186.21123      187.89001      275.96246    
     53000  -38375.707      235.05196     -38140.655      186.19265      187.86717      276.07158    
     53100  -38357.021      234.46541     -38122.556      186.17837      187.85017      276.1807     
     53200  -38340.839      238.79        -38102.049      186.1647       187.83192      276.28982    
     53300  -38316.721      235.31113     -38081.41       186.14604      187.80921      276.39894    
     53400  -38299.842      237.98569     -38061.857      186.12873      187.78601      276.50806    
     53500  -38280.057      233.27111     -38046.786      186.11564      187.76948      276.61717    
     53600  -38260.289      230.99449     -38029.294      186.10124      187.74891      276.72629    
     53700  -38246.161      236.50754     -38009.653      186.08366      187.72601      276.83541    
     53800  -38226.24       241.14612     -37985.094      186.06982      187.7066       276.94453    
     53900  -38204.868      242.82622     -37962.042      186.05655      187.68743      277.05365    
     54000  -38184.363      237.01726     -37947.346      186.03965      187.66592      277.16277    
     54100  -38167.891      237.33662     -37930.554      186.024        187.64344      277.27189    
     54200  -38150.937      238.68503     -37912.252      186.01035      187.62477      277.38101    
     54300  -38132.874      238.15118     -37894.723      185.99671      187.60555      277.49013    
     54400  -38113.994      236.23272     -37877.761      185.98038      187.58341      277.59925    
     54500  -38093.937      234.71666     -37859.221      185.96468      187.56316      277.70837    
     54600  -38071.852      236.96663     -37834.885      185.9514       187.54291      277.81749    
     54700  -38050.307      239.14399     -37811.163      185.93571      187.5227       277.9266     
     54800  -38035.221      240.97644     -37794.245      185.92091      187.50164      278.03572    
     54900  -38017.413      238.45652     -37778.957      185.90527      187.48174      278.14484    
     55000  -37997.162      236.80895     -37760.353      185.89069      187.462        278.25396    
     55100  -37975.405      234.31395     -37741.091      185.87541      187.4406       278.36308    
     55200  -37959.578      237.61391     -37721.964      185.85856      187.42152      278.4722     
     55300  -37941.593      236.62774     -37704.965      185.84563      187.40202      278.58132    
     55400  -37924.24       235.48201     -37688.758      185.82968      187.38436      278.69044    
     55500  -37901.837      233.41115     -37668.426      185.81287      187.36236      278.79956    
     55600  -37882.234      239.93269     -37642.302      185.79607      187.34301      278.90868    
     55700  -37858.743      238.26787     -37620.475      185.7828       187.32653      279.0178     
     55800  -37842.188      238.69516     -37603.493      185.76738      187.30741      279.12692    
     55900  -37822.766      236.78125     -37585.985      185.74784      187.28676      279.23604    
     56000  -37807.164      238.5424      -37568.621      185.7324       187.26716      279.34515    
     56100  -37783.636      233.12037     -37550.516      185.717        187.25192      279.45427    
     56200  -37769.154      237.14947     -37532.005      185.70075      187.23251      279.56339    
     56300  -37750.636      235.25166     -37515.384      185.68125      187.21274      279.67251    
     56400  -37732.245      234.81895     -37497.426      185.66468      187.19531      279.78163    
     56500  -37709.256      235.87491     -37473.381      185.64994      187.1794       279.89075    
     56600  -37687.17       238.21021     -37448.96       185.63009      187.16049      279.99987    
     56700  -37671.206      241.87658     -37429.33       185.61117      187.14046      280.10899    
     56800  -37649.599      237.51243     -37412.087      185.59635      187.12597      280.21811    
     56900  -37632.48       239.18853     -37393.291      185.57982      187.11019      280.32723    
     57000  -37611.572      236.23256     -37375.339      185.55915      187.09014      280.43635    
     57100  -37593.401      235.60292     -37357.798      185.53967      187.07285      280.54547    
     57200  -37578.895      239.39934     -37339.496      185.52424      187.05839      280.65458    
     57300  -37558.932      237.07925     -37321.853      185.50556      187.04293      280.7637     
     57400  -37539.435      232.68965     -37306.745      185.48499      187.02412      280.87282    
     57500  -37520.897      237.69682     -37283.201      185.46702      187.00875      280.98194    
     57600  -37497.836      239.56888     -37258.267      185.44947      186.9953       281.09106    
     57700  -37474.885      237.52774     -37237.357      185.42829      186.97621      281.20018    
     57800  -37455.378      236.49465     -37218.884      185.40561      186.95825      281.3093     
     57900  -37437.969      238.43827     -37199.531      185.38887      186.9449       281.41842    
     58000  -37419.559      238.90314     -37180.656      185.37153      186.93165      281.52754    
     58100  -37401.133      240.37013     -37160.763      185.34934      186.91368      281.63666    
     58200  -37380.37       239.39422     -37140.976      185.32789      186.89618      281.74578    
     58300  -37360.042      237.32866     -37122.713      185.30864      186.88206      281.8549     
     58400  -37342.781      237.24296     -37105.539      185.29067      186.86869      281.96402    
     58500  -37324.221      237.51608     -37086.705      185.27049      186.85299      282.07313    
     58600  -37306.73       239.54711     -37067.183      185.24818      186.83562      282.18225    
     58700  -37286.17       234.7996      -37051.371      185.22941      186.82169      282.29137    
     58800  -37263.648      233.50371     -37030.144      185.2101       186.80827      282.40049    
     58900  -37244.034      239.80534     -37004.229      185.18811      186.79115      282.50961    
     59000  -37219.123      238.36854     -36980.754      185.16508      186.77344      282.61873    
     59100  -37204.607      241.71737     -36962.89       185.14615      186.75879      282.72785    
     59200  -37181.357      235.86802     -36945.489      185.12823      186.74706      282.83697    
     59300  -37163.462      238.16254     -36925.299      185.10667      186.72999      282.94609    
     59400  -37143.147      237.37778     -36905.77       185.08359      186.71242      283.05521    
     59500  -37122.931      235.76415     -36887.166      185.06421      186.69894      283.16433    
     59600  -37106.414      237.30093     -36869.113      185.04571      186.68497      283.27345    
     59700  -37087.164      236.46049     -36850.703      185.02264      186.66852      283.38256    
     59800  -37070.066      234.89709     -36835.168      185.00245      186.65191      283.49168    
     59900  -37050.233      236.02094     -36814.212      184.98297      186.63847      283.6008     
     60000  -37023.065      236.25699     -36786.808      184.9614       186.62186      283.70992    
     60100  -37001.007      237.72118     -36763.286      184.93901      186.60324      283.81904    
     60200  -36983.225      239.51943     -36743.706      184.91902      186.58856      283.92816    
     60300  -36964.826      239.092       -36725.734      184.90177      186.57508      284.03728    
     60400  -36944.155      237.7327      -36706.423      184.88056      186.55762      284.1464     
     60500  -36921.92       236.32107     -36685.599      184.85763      186.53918      284.25552    
     60600  -36904.687      239.70533     -36664.982      184.84024      186.52402      284.36464    
     60700  -36882.881      237.25325     -36645.627      184.81986      186.5084       284.47376    
     60800  -36862.77       231.86711     -36630.903      184.79792      186.48801      284.58288    
     60900  -36846.095      236.59887     -36609.496      184.7797       186.47305      284.692      
     61000  -36821.685      238.30074     -36583.385      184.76051      186.45667      284.80111    
     61100  -36796.555      238.09051     -36558.465      184.73779      186.43502      284.91023    
     61200  -36776.464      238.05645     -36538.408      184.719        186.41882      285.01935    
     61300  -36761.596      239.12587     -36522.47       184.70444      186.40557      285.12847    
     61400  -36740.678      238.40399     -36502.275      184.68194      186.38373      285.23759    
     61500  -36720.079      238.22215     -36481.857      184.6586       186.36153      285.34671    
     61600  -36696.215      234.70213     -36461.513      184.64456      186.34787      285.45583    
     61700  -36680.63       236.34852     -36444.282      184.6282       186.332        285.56495    
     61800  -36658.982      235.31855     -36423.663      184.60386      186.30738      285.67407    
     61900  -36635.423      235.85501     -36399.568      184.58414      186.2865       285.78319    
     62000  -36616.146      240.51459     -36375.631      184.57108      186.27325      285.89231    
     62100  -36592.084      236.42379     -36355.661      184.55191      186.25221      286.00143    
     62200  -36571.762      234.06935     -36337.693      184.52909      186.22773      286.11054    
     62300  -36556.576      241.9714      -36314.605      184.51368      186.21082      286.21966    
     62400  -36534.4        242.17873     -36292.222      184.49909      186.19356      286.32878    
     62500  -36511.306      237.6808      -36273.625      184.47663      186.16911      286.4379     
     62600  -36489.278      236.67917     -36252.599      184.45694      186.14592      286.54702    
     62700  -36467.587      238.52123     -36229.065      184.44265      186.12956      286.65614    
     62800  -36445.031      238.23738     -36206.794      184.42489      186.10802      286.76526    
     62900  -36423.722      238.51338     -36185.208      184.40354      186.08309      286.87438    
     63000  -36404.917      242.15028     -36162.767      184.38663      186.06368      286.9835     
     63100  -36380.554      238.50338     -36142.051      184.37219      186.04415      287.09262    
     63200  -36362.165      240.09975     -36122.065      184.35241      186.02087      287.20174    
     63300  -36335.769      234.78539     -36100.983      184.33307      185.99788      287.31086    
     63400  -36313.457      235.02494     -36078.432      184.31789      185.97696      287.41998    
     63500  -36294.38       236.60583     -36057.774      184.29935      185.95599      287.52909    
     63600  -36274.2        237.64572     -36036.554      184.28133      185.93217      287.63821    
     63700  -36249.456      237.01924     -36012.437      184.26512      185.91059      287.74733    
     63800  -36230.394      240.23664     -35990.158      184.24753      185.88988      287.85645    
     63900  -36206.368      236.60057     -35969.767      184.22964      185.8648       287.96557    
     64000  -36185.246      237.34915     -35947.897      184.2114       185.84284      288.07469    
     64100  -36162.737      238.2859      -35924.451      184.19567      185.82248      288.18381    
     64200  -36139.28       237.71864     -35901.561      184.17806      185.79831      288.29293    
     64300  -36117.346      238.90033     -35878.446      184.1566       185.77368      288.40205    
     64400  -36098.092      242.98586     -35855.106      184.14115      185.75202      288.51117    
     64500  -36071.124      238.07671     -35833.047      184.12597      185.7313       288.62029    
     64600  -36049.323      238.29017     -35811.033      184.10351      185.70596      288.72941    
     64700  -36031.174      242.39881     -35788.776      184.08678      185.68258      288.83852    
     64800  -36003.277      237.34696     -35765.93       184.07125      185.66292      288.94764    
     64900  -35981.417      237.90858     -35743.509      184.05188      185.6396       289.05676    
     65000  -35957.323      237.35814     -35719.965      184.03293      185.6151       289.16588    
     65100  -35936.407      239.83133     -35696.576      184.0159       185.59441      289.275      
     65200  -35914.047      240.4809      -35673.566      183.99767      185.57228      289.38412    
     65300  -35891.565      240.9589      -35650.606      183.97829      185.54769      289.49324    
     65400  -35864.858      237.35672     -35627.502      183.95929      185.52616      289.60236    
     65500  -35842.1        237.64086     -35604.46       183.94099      185.50389      289.71148    
     65600  -35819.56       238.77495     -35580.785      183.92111      185.48033      289.8206     
     65700  -35795.383      239.87136     -35555.511      183.90185      185.45948      289.92972    
     65800  -35770.171      239.57676     -35530.594      183.88489      185.43825      290.03884    
     65900  -35746.984      239.9755      -35507.009      183.86346      185.41554      290.14796    
     66000  -35725.986      241.55349     -35484.432      183.8419       185.39222      290.25707    
     66100  -35700.503      239.02504     -35461.478      183.8255       185.37248      290.36619    
     66200  -35676.709      238.7306      -35437.978      183.8055       185.352        290.47531    
     66300  -35652.653      238.54925     -35414.104      183.78286      185.32824      290.58443    
     66400  -35629.812      240.47435     -35389.338      183.76374      185.30698      290.69355    
     66500  -35604.441      239.93583     -35364.506      183.7453       185.28884      290.80267    
     66600  -35578.111      238.11362     -35339.997      183.72288      185.26607      290.91179    
     66700  -35555.561      240.74069     -35314.82       183.70026      185.24282      291.02091    
     66800  -35527.001      237.68995     -35289.311      183.6825       185.22647      291.13003    
     66900  -35505.421      240.06713     -35265.353      183.66223      185.20638      291.23915    
     67000  -35478.955      239.06971     -35239.885      183.63739      185.18254      291.34827    
     67100  -35456.416      241.82708     -35214.589      183.61636      185.1635       291.45739    
     67200  -35428.504      239.21086     -35189.294      183.59758      185.14558      291.5665     
     67300  -35403.197      239.60715     -35163.589      183.57443      185.1241       291.67562    
     67400  -35379.529      241.53655     -35137.992      183.5504       185.10253      291.78474    
     67500  -35355.053      243.01873     -35112.035      183.53162      185.08541      291.89386    
     67600  -35326.999      239.49408     -35087.505      183.51067      185.06677      292.00298    
     67700  -35300.148      237.55183     -35062.596      183.48579      185.04472      292.1121     
     67800  -35275.341      239.26825     -35036.072      183.46443      185.02522      292.22122    
     67900  -35248.561      237.91633     -35010.645      183.44569      185.00994      292.33034    
     68000  -35224.153      238.47077     -34985.683      183.4224       184.98936      292.43946    
     68100  -35197.709      238.23032     -34959.478      183.39785      184.96787      292.54858    
     68200  -35176.081      243.0401      -34933.041      183.37728      184.95145      292.6577     
     68300  -35145.295      238.29697     -34906.998      183.35697      184.93381      292.76682    
     68400  -35121.578      242.42511     -34879.153      183.33247      184.91318      292.87594    
     68500  -35093.088      240.72426     -34852.364      183.30954      184.89421      292.98505    
     68600  -35062.667      238.3785      -34824.288      183.28993      184.87793      293.09417    
     68700  -35040.721      243.01203     -34797.709      183.26658      184.85918      293.20329    
     68800  -35010.647      239.51511     -34771.132      183.24181      184.8382       293.31241    
     68900  -34984.381      239.67265     -34744.708      183.22221      184.82257      293.42153    
     69000  -34958.659      241.06928     -34717.59       183.20146      184.80628      293.53065    
     69100  -34928.977      238.14322     -34690.833      183.17672      184.7854       293.63977    
     69200  -34903.16       240.06031     -34663.1        183.15419      184.76676      293.74889    
     69300  -34876.237      240.13041     -34636.107      183.13514      184.75253      293.85801    
     69400  -34850.427      241.73344     -34608.694      183.11326      184.73417      293.96713    
     69500  -34820.328      240.16212     -34580.166      183.08779      184.71285      294.07625    
     69600  -34794.291      242.13726     -34552.154      183.06772      184.69713      294.18537    
     69700  -34763.972      240.26802     -34523.704      183.04865      184.6819       294.29448    
     69800  -34738.303      242.49933     -34495.804      183.02507      184.66227      294.4036     
     69900  -34705.726      237.00294     -34468.723      183.00126      184.64247      294.51272    
     70000  -34683.929      242.08583     -34441.844      182.9829       184.62769      294.62184    
     70100  -34650.202      237.47661     -34412.725      182.96239      184.61104      294.73096    
     70200  -34627.623      243.65699     -34383.966      182.93887      184.59063      294.84008    
     70300  -34597.578      243.20543     -34354.373      182.91836      184.57349      294.9492     
     70400  -34568.616      242.57418     -34326.042      182.89921      184.55804      295.05832    
     70500  -34537.914      242.78487     -34295.129      182.87752      184.5392       295.16744    
     70600  -34510.895      244.92285     -34265.972      182.85593      184.52034      295.27656    
     70700  -34476.876      240.1729      -34236.703      182.83678      184.50411      295.38568    
     70800  -34450.972      242.77205     -34208.2        182.81825      184.48778      295.4948     
     70900  -34418.919      240.97316     -34177.946      182.79676      184.46885      295.60392    
     71000  -34393.589      244.71922     -34148.869      182.77693      184.45079      295.71303    
     71100  -34363.826      245.14844     -34118.678      182.75878      184.43457      295.82215    
     71200  -34331.752      242.2238      -34089.528      182.7393       184.41665      295.93127    
     71300  -34302.534      242.91365     -34059.621      182.71867      184.39727      296.04039    
     71400  -34269.604      241.96181     -34027.642      182.70036      184.37992      296.14951    
     71500  -34239.34       241.97038     -33997.37       182.68334      184.3645       296.25863    
     71600  -34208.208      242.09136     -33966.117      182.66428      184.34564      296.36775    
     71700  -34181.38       245.3209      -33936.059      182.64377      184.32571      296.47687    
     71800  -34150.345      245.13511     -33905.209      182.62738      184.31002      296.58599    
     71900  -34119.759      245.04775     -33874.711      182.61135      184.29414      296.69511    
     72000  -34089.622      245.6933      -33843.929      182.59165      184.27438      296.80423    
     72100  -34063.836      248.04709     -33815.789      182.57287      184.25553      296.91335    
     72200  -34028.948      244.56604     -33784.382      182.55801      184.24019      297.02246    
     72300  -33995.623      242.65176     -33752.971      182.54075      184.22245      297.13158    
     72400  -33963.021      242.95387     -33720.067      182.52108      184.20213      297.2407     
     72500  -33935.404      246.18122     -33689.222      182.50543      184.18541      297.34982    
     72600  -33903.02       246.03179     -33656.988      182.49025      184.1694       297.45894    
[...]
     81600  -43362.636      231.42021     -43131.215      182.12727      183.43104      307.27967    
     81700  -43352.298      231.86247     -43120.436      182.15684      183.45752      307.38879    
     81800  -43350.689      243.8328      -43106.856      182.18383      183.49         307.49791    
     81900  -43346.734      244.70936     -43102.025      182.20891      183.52235      307.60703    
     82000  -43345.519      237.69413     -43107.825      182.22638      183.54585      307.71615    
     82100  -43350.232      234.81597     -43115.416      182.24901      183.56513      307.82527    
     82200  -43357          237.31614     -43119.684      182.28057      183.58303      307.93438    
     82300  -43358.243      234.81621     -43123.427      182.31378      183.60619      308.0435     
     82400  -43360.226      236.76799     -43123.458      182.34136      183.63058      308.15262    
     82500  -43355.283      234.0246      -43121.259      182.36539      183.65215      308.26174    
     82600  -43352.166      237.12245     -43115.044      182.38806      183.66629      308.37086    
     82700  -43347.231      239.11029     -43108.121      182.41619      183.68067      308.47998    
     82800  -43350.672      243.26358     -43107.409      182.44947      183.69645      308.5891     
     82900  -43346.157      233.79836     -43112.359      182.48757      183.71812      308.69822    
     83000  -43345.459      233.37147     -43112.088      182.51975      183.73626      308.80734    
     83100  -43346.266      238.60588     -43107.66       182.55925      183.75491      308.91646    
     83200  -43344.495      239.6091      -43104.886      182.59576      183.76436      309.02558    
     83300  -43339.935      235.60501     -43104.33       182.63381      183.77579      309.1347     
     83400  -43336.117      233.17645     -43102.941      182.67727      183.7935       309.24382    
     83500  -43330.564      236.01014     -43094.554      182.71397      183.81127      309.35293    
     83600  -43329.067      244.52275     -43084.545      182.74862      183.82964      309.46205    
     83700  -43328.021      242.74836     -43085.272      182.79604      183.85896      309.57117    
     83800  -43334.629      236.26651     -43098.363      182.84225      183.88581      309.68029    
     83900  -43338.638      229.79896     -43108.839      182.88323      183.90861      309.78941    
     84000  -43336.028      230.81484     -43105.213      182.9189       183.92853      309.89853    
     84100  -43326.452      239.17966     -43087.272      182.95491      183.94547      310.00765    
     84200  -43320.947      249.95055     -43070.997      182.98771      183.95994      310.11677    
     84300  -43317.206      244.44564     -43072.761      183.02466      183.97767      310.22589    
     84400  -43321.754      234.01155     -43087.743      183.05793      183.99025      310.33501    
     84500  -43327.443      230.42814     -43097.015      183.0867       184.0021       310.44413    
     84600  -43328.224      233.34617     -43094.878      183.11544      184.01522      310.55325    
     84700  -43320.966      236.00051     -43084.966      183.13523      184.02432      310.66236    
     84800  -43317.596      242.90039     -43074.695      183.15178      184.02733      310.77148    
     84900  -43331.613      250.75722     -43080.856      183.17082      184.03403      310.8806     
     85000  -43346.458      234.82704     -43111.631      183.19255      184.04588      310.98972    
     85100  -43363.76       226.62783     -43137.133      183.21409      184.05528      311.09884    
     85200  -43359.599      225.41797     -43134.181      183.23253      184.0716       311.20796    
     85300  -43343.599      234.59639     -43109.002      183.24979      184.09203      311.31708    
     85400  -43330.561      249.76843     -43080.792      183.25544      184.10931      311.4262     
     85500  -43326.782      251.18916     -43075.592      183.24909      184.12261      311.53532    
     85600  -43332.535      237.21599     -43095.319      183.24772      184.14105      311.64444    
     85700  -43345.997      230.4927      -43115.504      183.24726      184.16426      311.75356    
     85800  -43346.62       226.03926     -43120.581      183.23871      184.17852      311.86268    
     85900  -43333.421      233.10015     -43100.321      183.2277       184.19279      311.9718     
     86000  -43321.509      245.89902     -43075.61       183.21919      184.21183      312.08091    
     86100  -43322.957      252.41391     -43070.543      183.20159      184.22263      312.19003    
     86200  -43327.855      238.36505     -43089.49       183.18045      184.22717      312.29915    
     86300  -43337.376      227.77128     -43109.605      183.16367      184.2338       312.40827    
     86400  -43338.375      225.8695      -43112.505      183.14589      184.24371      312.51739    
     86500  -43331.387      235.41566     -43095.971      183.11683      184.2499       312.62651    
     86600  -43317.337      244.02298     -43073.314      183.09312      184.25746      312.73563    
     86700  -43311.82       247.58819     -43064.232      183.07782      184.26986      312.84475    
     86800  -43316.109      240.98174     -43075.127      183.05341      184.27323      312.95387    
     86900  -43326.216      231.70247     -43094.514      183.02969      184.27792      313.06299    
     87000  -43330.335      228.15571     -43102.179      183.00629      184.28092      313.17211    
     87100  -43326.637      232.3119      -43094.325      182.97978      184.27611      313.28123    
     87200  -43315.388      240.61346     -43074.774      182.96118      184.27549      313.39034    
     87300  -43309.929      244.23179     -43065.697      182.94465      184.27344      313.49946    
     87400  -43318.502      244.86464     -43073.637      182.92101      184.26086      313.60858    
     87500  -43320.622      230.84446     -43089.777      182.90058      184.24427      313.7177     
     87600  -43321.908      224.3258      -43097.582      182.88001      184.22221      313.82682    
     87700  -43323.759      233.90319     -43089.856      182.8562       184.19746      313.93594    
     87800  -43313.399      237.83344     -43075.566      182.84202      184.16969      314.04506    
     87900  -43310.201      242.99041     -43067.21       182.83459      184.14298      314.15418    
     88000  -43316.743      242.83719     -43073.906      182.82604      184.11059      314.2633     
     88100  -43324.649      234.75503     -43089.894      182.8159       184.07157      314.37242    
     88200  -43331.631      230.89956     -43100.731      182.8123       184.03144      314.48154    
     88300  -43327.14       229.91479     -43097.225      182.80816      183.98727      314.59066    
     88400  -43319.311      237.40341     -43081.908      182.80273      183.94349      314.69978    
     88500  -43315.596      246.74602     -43068.85       182.79535      183.89763      314.80889    
     88600  -43315.383      244.80789     -43070.575      182.78859      183.84775      314.91801    
     88700  -43318.732      233.99978     -43084.732      182.78005      183.79883      315.02713    
     88800  -43325.073      230.25724     -43094.816      182.77374      183.75515      315.13625    
     88900  -43323.443      231.77228     -43091.671      182.76606      183.71265      315.24537    
     89000  -43315.803      237.78369     -43078.019      182.75908      183.66932      315.35449    
     89100  -43306.974      243.47571     -43063.498      182.75514      183.62697      315.46361    
     89200  -43304.175      244.16716     -43060.008      182.75039      183.58824      315.57273    
     89300  -43309.642      240.8389      -43068.804      182.74406      183.55262      315.68185    
     89400  -43310.418      232.26439     -43078.154      182.73594      183.5144       315.79097    
     89500  -43311.003      233.35338     -43077.65       182.7245       183.47371      315.90009    
     89600  -43306.114      238.91889     -43067.195      182.71216      183.43691      316.00921    
     89700  -43295.057      240.52827     -43054.529      182.69298      183.39996      316.11832    
     89800  -43294.779      243.56621     -43051.212      182.67029      183.36151      316.22744    
     89900  -43295.458      238.53089     -43056.927      182.64788      183.33154      316.33656    
     90000  -43297.652      233.20348     -43064.449      182.62888      183.30478      316.44568    
     90100  -43296.765      231.17289     -43065.593      182.60635      183.28042      316.5548     
     90200  -43294.201      234.66271     -43059.538      182.58169      183.25834      316.66392    
     90300  -43287.84       238.37994     -43049.46       182.55226      183.23971      316.77304    
     90400  -43282.627      240.581       -43042.046      182.52209      183.22397      316.88216    
     90500  -43284.063      241.02387     -43043.039      182.48618      183.20767      316.99128    
     90600  -43287.922      238.10181     -43049.82       182.45536      183.19956      317.1004     
     90700  -43287.094      232.94908     -43054.145      182.42525      183.19415      317.20952    
     90800  -43285.525      234.00472     -43051.521      182.39471      183.18887      317.31864    
     90900  -43278.69       236.90019     -43041.79       182.37053      183.18829      317.42776    
     91000  -43273.729      242.34936     -43031.38       182.3416       183.18767      317.53687    
     91100  -43274.714      244.48235     -43030.232      182.30995      183.18818      317.64599    
     91200  -43275.749      239.62664     -43036.122      182.28518      183.19206      317.75511    
     91300  -43277.704      233.91622     -43043.788      182.26661      183.20441      317.86423    
     91400  -43276.43       231.37362     -43045.057      182.23829      183.21419      317.97335    
     91500  -43276.894      238.52796     -43038.366      182.21683      183.22762      318.08247    
     91600  -43270.059      242.26129     -43027.798      182.19518      183.24435      318.19159    
     91700  -43264.574      242.13463     -43022.44       182.17106      183.25977      318.30071    
     91800  -43265.012      238.75579     -43026.256      182.1484       183.27597      318.40983    
     91900  -43265.83       231.47148     -43034.359      182.11705      183.28996      318.51895    
     92000  -43272.115      234.89976     -43037.215      182.09057      183.31123      318.62807    
     92100  -43265.746      232.4571      -43033.289      182.06319      183.33176      318.73719    
     92200  -43264.135      238.65179     -43025.483      182.03174      183.34608      318.8463     
     92300  -43256.513      239.59341     -43016.92       182.00188      183.36036      318.95542    
     92400  -43255.738      241.22374     -43014.514      181.97557      183.37498      319.06454    
     92500  -43258.609      239.10663     -43019.502      181.94788      183.38785      319.17366    
     92600  -43260.886      235.89741     -43024.988      181.91722      183.39805      319.28278    
     92700  -43255.467      229.10206     -43026.365      181.89099      183.40826      319.3919     
     92800  -43256.816      235.83454     -43020.982      181.86909      183.42319      319.50102    
     92900  -43254.509      242.6947      -43011.814      181.85265      183.43774      319.61014    
     93000  -43243.229      237.37976     -43005.849      181.83493      183.45203      319.71926    
     93100  -43250.035      241.36285     -43008.672      181.82085      183.46625      319.82838    
     93200  -43252.342      237.31074     -43015.031      181.8072       183.48054      319.9375     
     93300  -43250.287      232.30158     -43017.985      181.79442      183.49225      320.04662    
     93400  -43249.51       236.63011     -43012.879      181.78069      183.50117      320.15574    
     93500  -43242.567      239.65412     -43002.913      181.76829      183.50811      320.26485    
     93600  -43239.781      242.57707     -42997.204      181.75933      183.51574      320.37397    
     93700  -43239.732      240.2383      -42999.493      181.75241      183.52093      320.48309    
     93800  -43238.878      234.41705     -43004.461      181.74357      183.52078      320.59221    
     93900  -43241.553      235.58349     -43005.969      181.73818      183.51976      320.70133    
     94000  -43234.858      232.56902     -43002.289      181.73934      183.52081      320.81045    
     94100  -43234.245      238.37286     -42995.872      181.73722      183.51652      320.91957    
     94200  -43236.7        244.15376     -42992.546      181.7355       183.51094      321.02869    
     94300  -43234.057      239.34897     -42994.708      181.74161      183.51048      321.13781    
     94400  -43233.902      234.42004     -42999.482      181.74848      183.50579      321.24693    
     94500  -43235.902      233.24873     -43002.653      181.75646      183.50288      321.35605    
     94600  -43232.611      232.99593     -42999.615      181.77418      183.50212      321.46517    
     94700  -43226.538      235.2432      -42991.295      181.78751      183.49405      321.57428    
     94800  -43227.613      242.45671     -42985.156      181.80153      183.487        321.6834     
     94900  -43226.739      241.34248     -42985.396      181.82049      183.48363      321.79252    
     95000  -43225.904      236.29994     -42989.604      181.8393       183.47775      321.90164    
     95100  -43230.088      237.18365     -42992.904      181.86182      183.47257      322.01076    
     95200  -43235.273      237.45764     -42997.815      181.88097      183.4642       322.11988    
     95300  -43234.41       233.52832     -43000.882      181.90276      183.45905      322.229      
     95400  -43236.706      236.89916     -42999.807      181.92554      183.4534       322.33812    
     95500  -43233.767      238.09709     -42995.669      181.95079      183.44707      322.44724    
     95600  -43229.654      238.23764     -42991.416      181.97782      183.44478      322.55636    
     95700  -43227.189      238.06174     -42989.127      182.00305      183.44711      322.66548    
     95800  -43224.828      235.88063     -42988.947      182.02689      183.4482       322.7746     
     95900  -43224.124      235.7378      -42988.386      182.04931      183.44867      322.88372    
     96000  -43221.506      235.73701     -42985.769      182.07189      183.44637      322.99283    
     96100  -43219.609      236.77551     -42982.833      182.09728      183.44907      323.10195    
     96200  -43216.942      237.16608     -42979.775      182.11699      183.45042      323.21107    
     96300  -43213.181      235.03121     -42978.149      182.13439      183.45212      323.32019    
     96400  -43209.693      234.1246      -42975.569      182.15238      183.45237      323.42931    
     96500  -43207.565      236.96156     -42970.604      182.17514      183.45262      323.53843    
     96600  -43209.339      242.57931     -42966.76       182.19784      183.45456      323.64755    
     96700  -43209.87       237.63899     -42972.231      182.21837      183.45745      323.75667    
     96800  -43210.878      232.7254      -42978.153      182.23183      183.46114      323.86579    
     96900  -43213.896      234.18029     -42979.716      182.24539      183.46523      323.97491    
     97000  -43208.13       234.87633     -42973.253      182.25986      183.46984      324.08403    
     97100  -43201.609      238.43957     -42963.169      182.27121      183.47675      324.19315    
     97200  -43201.332      242.33995     -42958.992      182.27735      183.4819       324.30227    
     97300  -43202.22       237.17027     -42965.05       182.2792       183.48702      324.41138    
     97400  -43205.715      232.99786     -42972.717      182.28287      183.49439      324.5205     
     97500  -43208.9        236.52949     -42972.371      182.28627      183.49871      324.62962    
     97600  -43198.88       236.46964     -42962.41       182.28908      183.50673      324.73874    
     97700  -43193.58       242.17793     -42951.402      182.29046      183.51719      324.84786    
     97800  -43192.964      243.16593     -42949.798      182.28772      183.52317      324.95698    
     97900  -43195.406      238.03814     -42957.368      182.28306      183.52904      325.0661     
     98000  -43199.993      235.43756     -42964.556      182.27305      183.53205      325.17522    
     98100  -43195.742      232.53183     -42963.21       182.26179      183.53288      325.28434    
     98200  -43193.767      238.56757     -42955.2        182.24372      183.53273      325.39346    
     98300  -43184.404      238.03264     -42946.371      182.22572      183.53358      325.50258    
     98400  -43181.62       238.56641     -42943.054      182.20624      183.53176      325.6117     
     98500  -43183.6        236.75946     -42946.84       182.1864       183.5263       325.72081    
     98600  -43184.953      232.97552     -42951.977      182.16883      183.523        325.82993    
     98700  -43187.675      237.32833     -42950.346      182.15506      183.51919      325.93905    
     98800  -43179.473      238.16184     -42941.311      182.13734      183.5095       326.04817    
     98900  -43170.745      239.45291     -42931.292      182.11763      183.49602      326.15729    
     99000  -43167.008      239.65481     -42927.354      182.09789      183.48045      326.26641    
     99100  -43168.066      237.57883     -42930.487      182.07609      183.4627       326.37553    
     99200  -43172.889      237.00839     -42935.881      182.0548       183.44012      326.48465    
     99300  -43169.964      232.54917     -42937.414      182.03184      183.4155       326.59377    
     99400  -43166.155      235.05994     -42931.095      182.00305      183.38875      326.70289    
     99500  -43161.975      242.26525     -42919.71       181.97409      183.35664      326.81201    
     99600  -43154.694      240.81013     -42913.884      181.95255      183.32703      326.92113    
     99700  -43153.126      236.29968     -42916.826      181.92987      183.29312      327.03025    
     99800  -43161.647      235.23136     -42926.416      181.9083       183.2558       327.13936    
     99900  -43159.165      228.53193     -42930.633      181.88676      183.21492      327.24848    
    100000  -43159.851      235.21388     -42924.637      181.86431      183.17282      327.3576     
Loop time of 4679.24 on 12 procs for 100000 steps with 6120 atoms

Performance: 1.846 ns/day, 12.998 hours/ns, 21.371 timesteps/s, 130.790 katom-step/s
73.6% CPU use with 12 MPI tasks x 1 OpenMP threads

MPI task timing breakdown:
Section |  min time  |  avg time  |  max time  |%varavg| %total
---------------------------------------------------------------
Pair    | 827.51     | 954.09     | 1162.4     | 352.1 | 20.39
Neigh   | 3.0037     | 3.814      | 5.6757     |  39.7 |  0.08
Comm    | 1007.5     | 1267.8     | 1409.5     | 340.3 | 27.09
Output  | 4.6232     | 4.8266     | 5.0135     |   5.9 |  0.10
Modify  | 2240.7     | 2280.9     | 2332.3     |  51.2 | 48.75
Other   |            | 167.8      |            |       |  3.59

Nlocal:            510 ave         991 max         262 min
Histogram: 2 2 3 1 1 2 0 0 0 1
Nghost:        1562.33 ave        1809 max        1400 min
Histogram: 3 2 1 1 2 0 0 1 0 2
Neighs:              0 ave           0 max           0 min
Histogram: 12 0 0 0 0 0 0 0 0 0

Total # of neighbors = 0
Ave neighs/atom = 0
Neighbor list builds = 414
Dangerous builds = 0
Total wall time: 1:18:00
