LAMMPS (2 Aug 2023 - Update 3)
OMP_NUM_THREADS environment is not set. Defaulting to 1 thread. (src/comm.cpp:98)
  using 1 OpenMP thread(s) per MPI task
Reading data file ...
  orthogonal box = (-100 -100 -2.3312515) to (100 100 46.166171)
  4 by 4 by 1 MPI processor grid
  reading atoms ...
  1320 atoms
  read_data CPU = 0.396 seconds
360 atoms in group sr
Deleted 360 atoms, new total = 960
Replication is creating a 1x1x17 = 17 times larger system...
  orthogonal box = (-100 -100 -2.3312515) to (100 100 822.12494)
  1 by 2 by 8 MPI processor grid
  16320 atoms
  replicate CPU = 0.504 seconds
System init for write_data ...
WARNING: Communication cutoff is 0.0. No ghost atoms will be generated. Atoms may get lost. (src/comm_brick.cpp:210)
Reading airebo potential file CH.airebo with DATE: 2011-10-25
Reading airebo potential file CH.airebo with DATE: 2011-10-25
Reading airebo potential file CH.airebo with DATE: 2011-10-25
Neighbor list info ...
  update: every = 1 steps, delay = 0 steps, check = yes
  max neighbors/atom: 2000, page size: 100000
  master list distance cutoff = 13.2
  ghost atom cutoff = 13.2
  binsize = 6.6, bins = 31 31 125
  6 neighbor lists, perpetual/occasional/extra = 6 0 0
  (1) pair airebo, perpetual, skip from (5)
      attributes: full, newton on, ghost
      pair build: skip/ghost
      stencil: none
      bin: none
  (2) pair airebo, perpetual, skip from (5)
      attributes: full, newton on, ghost
      pair build: skip/ghost
      stencil: none
      bin: none
  (3) pair airebo, perpetual, skip from (5)
      attributes: full, newton on, ghost
      pair build: skip/ghost
      stencil: none
      bin: none
  (4) pair lj/cut, perpetual, skip from (6)
      attributes: half, newton on, cut 13
      pair build: skip
      stencil: none
      bin: none
  (5) neighbor class addition, perpetual
      attributes: full, newton on, ghost
      pair build: full/bin/ghost
      stencil: full/ghost/bin/3d
      bin: standard
  (6) neighbor class addition, perpetual
      attributes: half, newton on, cut 13
      pair build: half/bin/atomonly/newton
      stencil: half/bin/3d
      bin: standard
Setting up sd style minimization ...
  Unit style    : metal
  Current step  : 0
Per MPI rank memory allocation (min/avg/max) = 12.07 | 12.46 | 12.84 Mbytes
   Step          Temp          E_pair         E_mol          TotEng         Press     
         0   0             -120893.39      0             -120893.39     -25.745857    
         1   0             -120893.69      0             -120893.69     -25.739335    
Loop time of 0.927502 on 16 procs for 1 steps with 16320 atoms

45.8% CPU use with 16 MPI tasks x 1 OpenMP threads

Minimization stats:
  Stopping criterion = energy tolerance
  Energy initial, next-to-last, final = 
     -120893.394176495  -120893.394176495  -120893.693777565
  Force two-norm initial, final = 8.9304592 0.89972608
  Force max component initial, final = 0.069876905 0.0070494245
  Final line search alpha, max atom move = 1 0.0070494245
  Iterations, force evaluations = 1 2

MPI task timing breakdown:
Section |  min time  |  avg time  |  max time  |%varavg| %total
---------------------------------------------------------------
Pair    | 0.059102   | 0.072582   | 0.077369   |   1.9 |  7.83
Neigh   | 0          | 0          | 0          |   0.0 |  0.00
Comm    | 0.071905   | 0.16676    | 0.26662    |  12.1 | 17.98
Output  | 0          | 0          | 0          |   0.0 |  0.00
Modify  | 0          | 0          | 0          |   0.0 |  0.00
Other   |            | 0.6882     |            |       | 74.20

Nlocal:           1020 ave        1063 max         977 min
Histogram: 8 0 0 0 0 0 0 0 0 8
Nghost:           1524 ave        1567 max        1481 min
Histogram: 8 0 0 0 0 0 0 0 0 8
Neighs:              0 ave           0 max           0 min
Histogram: 16 0 0 0 0 0 0 0 0 0

Total # of neighbors = 0
Ave neighs/atom = 0
Neighbor list builds = 0
Dangerous builds = 0
Setting up Verlet run ...
  Unit style    : metal
  Current step  : 1
  Time step     : 0.001
Per MPI rank memory allocation (min/avg/max) = 12.7 | 13.08 | 13.46 Mbytes
   Step          Temp          E_pair         E_mol          TotEng         Press          Volume    
         1   300           -120893.69      0             -120260.87     -5.2432479      32978248     
Loop time of 0.0469971 on 16 procs for 0 steps with 16320 atoms

42.0% CPU use with 16 MPI tasks x 1 OpenMP threads

MPI task timing breakdown:
Section |  min time  |  avg time  |  max time  |%varavg| %total
---------------------------------------------------------------
Pair    | 0          | 0          | 0          |   0.0 |  0.00
Neigh   | 0          | 0          | 0          |   0.0 |  0.00
Comm    | 0          | 0          | 0          |   0.0 |  0.00
Output  | 0          | 0          | 0          |   0.0 |  0.00
Modify  | 0          | 0          | 0          |   0.0 |  0.00
Other   |            | 0.047      |            |       |100.00

Nlocal:           1020 ave        1020 max        1020 min
Histogram: 16 0 0 0 0 0 0 0 0 0
Nghost:           1524 ave        1524 max        1524 min
Histogram: 16 0 0 0 0 0 0 0 0 0
Neighs:              0 ave           0 max           0 min
Histogram: 16 0 0 0 0 0 0 0 0 0

Total # of neighbors = 0
Ave neighs/atom = 0
Neighbor list builds = 0
Dangerous builds = 0
WARNING: Dump 2 includes no atom IDs and is not sorted by ID. This may complicate post-processing tasks or visualization (src/dump.cpp:221)
Setting up Verlet run ...
  Unit style    : metal
  Current step  : 0
  Time step     : 0.001
Per MPI rank memory allocation (min/avg/max) = 14.2 | 14.58 | 14.96 Mbytes
   Step         PotEng         KinEng         TotEng           Lx             Ly             Lz      
         0  -120893.69      632.81889     -120260.87      200            200            824.45619    
       100  -120530.61      312.64444     -120217.97      199.99849      199.99943      824.86842    
       200  -120542.14      382.64738     -120159.5       199.99671      199.99878      825.28065    
       300  -120481.41      391.38645     -120090.02      199.99755      200.00093      825.69288    
       400  -120454.25      440.69243     -120013.56      199.99329      199.99881      826.1051     
       500  -120408.19      475.52988     -119932.66      199.99398      200.00225      826.51733    
       600  -120380.12      530.63411     -119849.48      199.98941      200.00179      826.92956    
       700  -120332.75      564.3382      -119768.42      199.98709      200.00452      827.34179    
       800  -120296.65      602.97787     -119693.67      199.98209      200.00551      827.75402    
       900  -120255.74      623.83896     -119631.91      199.97747      200.00855      828.16624    
      1000  -120244.82      653.04795     -119591.77      199.97251      200.01185      828.57847    
      1100  -120233.47      646.55648     -119586.91      199.96543      200.01481      828.9907     
      1200  -120252.1       639.56438     -119612.53      199.95875      200.01915      829.40293    
      1300  -120258.27      620.67076     -119637.6       199.9507       200.02327      829.81516    
      1400  -120254.98      613.74948     -119641.23      199.94156      200.02726      830.22738    
      1500  -120238.07      620.0188      -119618.05      199.93236      200.03226      830.63961    
      1600  -120228.72      639.73423     -119588.99      199.92257      200.03762      831.05184    
      1700  -120223.61      645.55453     -119578.06      199.91276      200.04339      831.46407    
      1800  -120225.1       635.22411     -119589.87      199.90103      200.04741      831.8763     
      1900  -120235.94      629.10561     -119606.84      199.89099      200.05343      832.28852    
      2000  -120238.74      627.53464     -119611.2       199.87928      200.05792      832.70075    
      2100  -120223.06      628.07235     -119594.99      199.86725      200.06153      833.11298    
      2200  -120207.61      638.43739     -119569.18      199.8574       200.06716      833.52521    
      2300  -120197.36      644.50804     -119552.85      199.84504      200.06934      833.93744    
      2400  -120192.02      635.67649     -119556.34      199.83525      200.07359      834.34967    
      2500  -120194.6       624.52189     -119570.08      199.82356      200.0747       834.76189    
      2600  -120199.58      622.47651     -119577.11      199.8139       200.07699      835.17412    
      2700  -120187.03      620.36495     -119566.66      199.8038       200.07737      835.58635    
      2800  -120177.05      633.84229     -119543.21      199.79381      200.07651      835.99858    
      2900  -120162.68      639.47731     -119523.21      199.78596      200.07709      836.41081    
      3000  -120165.63      645.50208     -119520.13      199.77615      200.07467      836.82303    
      3100  -120162.65      632.26438     -119530.38      199.76779      200.07262      837.23526    
      3200  -120157.45      620.17209     -119537.27      199.75955      200.06956      837.64749    
      3300  -120154.85      625.87497     -119528.98      199.75111      200.06573      838.05972    
      3400  -120138.92      631.20442     -119507.72      199.74381      200.06202      838.47195    
      3500  -120120.96      634.80277     -119486.16      199.73508      200.05677      838.88417    
      3600  -120124.54      645.92065     -119478.62      199.72834      200.05309      839.2964     
      3700  -120117.48      632.35218     -119485.13      199.71909      200.04709      839.70863    
      3800  -120110.68      619.73012     -119490.95      199.71008      200.04176      840.12086    
      3900  -120111.4       627.49982     -119483.9       199.70204      200.03777      840.53309    
      4000  -120098.26      634.21877     -119464.04      199.6908       200.03153      840.94531    
      4100  -120080.01      637.96281     -119442.04      199.68147      200.02785      841.35754    
      4200  -120075.29      645.27387     -119430.02      199.67008      200.02285      841.76977    
      4300  -120070.83      637.58106     -119433.25      199.65848      200.01911      842.182      
      4400  -120063.87      624.38109     -119439.49      199.64554      200.01502      842.59423    
      4500  -120063.46      628.94919     -119434.51      199.63166      200.01112      843.00646    
      4600  -120045.78      630.84025     -119414.94      199.61807      200.00919      843.41868    
      4700  -120026.01      634.78696     -119391.22      199.60218      200.00607      843.83091    
      4800  -120019.5       643.19554     -119376.31      199.58631      200.00428      844.24314    
      4900  -120019.73      645.26089     -119374.47      199.57008      200.00318      844.65537    
      5000  -120010.3       631.15525     -119379.15      199.55136      200.00098      845.0676     
      5100  -119998.61      622.64251     -119375.97      199.53335      200.00024      845.47982    
      5200  -119988.83      628.71926     -119360.11      199.51414      199.9989       845.89205    
      5300  -119975.13      639.19935     -119335.93      199.49475      199.99765      846.30428    
      5400  -119960.42      642.39272     -119318.02      199.47569      199.99719      846.71651    
      5500  -119950.72      638.91957     -119311.8       199.45399      199.99466      847.12874    
      5600  -119943.11      630.30308     -119312.8       199.43506      199.99475      847.54096    
      5700  -119931.43      621.19754     -119310.23      199.4128       199.99123      847.95319    
      5800  -119922.43      625.77332     -119296.66      199.3927       199.989        848.36542    
      5900  -119906.16      632.00825     -119274.15      199.37307      199.9863       848.77765    
      6000  -119893.39      639.02227     -119254.37      199.35188      199.98097      849.18988    
      6100  -119877.42      634.38095     -119243.04      199.33305      199.97679      849.6021     
      6200  -119871.48      631.85033     -119239.63      199.31334      199.97078      850.01433    
      6300  -119864.71      627.50821     -119237.2       199.29371      199.96364      850.42656    
      6400  -119853.8       627.67378     -119226.12      199.27477      199.95642      850.83879    
      6500  -119833.55      628.92692     -119204.62      199.25547      199.94775      851.25102    
      6600  -119821.36      638.96787     -119182.39      199.23756      199.9396       851.66325    
      6700  -119808.03      640.06684     -119167.96      199.21833      199.92893      852.07547    
      6800  -119796.53      633.09281     -119163.43      199.20054      199.91876      852.4877     
      6900  -119789.54      628.93137     -119160.61      199.18174      199.90691      852.89993    
      7000  -119777.5       627.98866     -119149.51      199.1633       199.89472      853.31216    
      7100  -119763.85      633.70261     -119130.15      199.14552      199.88307      853.72439    
      7200  -119742.38      633.42057     -119108.96      199.1256       199.86951      854.13661    
      7300  -119729.65      637.71221     -119091.94      199.10714      199.85766      854.54884    
      7400  -119716.98      635.57929     -119081.4       199.08676      199.84459      854.96107    
      7500  -119703.53      629.36986     -119074.16      199.06575      199.83153      855.3733     
      7600  -119694.01      629.31899     -119064.69      199.04561      199.81987      855.78553    
      7700  -119677.96      628.67745     -119049.29      199.02212      199.80612      856.19775    
      7800  -119664.51      636.01993     -119028.49      199.00048      199.79513      856.60998    
      7900  -119642.66      635.044       -119007.61      198.97613      199.78273      857.02221    
      8000  -119624.78      633.30089     -118991.48      198.95124      199.7711       857.43444    
      8100  -119615.57      633.99152     -118981.58      198.92666      199.76076      857.84667    
      8200  -119601.01      627.48726     -118973.52      198.89885      199.74885      858.25889    
      8300  -119590.74      630.93751     -118959.81      198.87189      199.7391       858.67112    
      8400  -119568.31      629.03438     -118939.27      198.84339      199.72904      859.08335    
      8500  -119550.54      634.35475     -118916.19      198.81316      199.71859      859.49558    
      8600  -119532.78      634.75353     -118898.03      198.78372      199.71005      859.90781    
      8700  -119520.83      634.50639     -118886.32      198.75172      199.69964      860.32004    
      8800  -119507.16      629.44274     -118877.72      198.72022      199.69048      860.73226    
      8900  -119490.46      625.15132     -118865.31      198.68776      199.68089      861.14449    
      9000  -119474.34      629.81626     -118844.52      198.65433      199.67032      861.55672    
      9100  -119453.02      633.31447     -118819.7       198.62172      199.66085      861.96895    
      9200  -119436.36      638.31101     -118798.05      198.58745      199.64941      862.38118    
      9300  -119422.29      638.42055     -118783.87      198.55396      199.63852      862.7934     
      9400  -119408.94      634.67882     -118774.26      198.51993      199.6265       863.20563    
      9500  -119393.27      630.54641     -118762.73      198.48596      199.61335      863.61786    
      9600  -119369.8       625.78248     -118744.02      198.45281      199.60014      864.03009    
      9700  -119349.66      631.40335     -118718.25      198.41899      199.58517      864.44232    
      9800  -119329.2       635.70739     -118693.5       198.38626      199.57018      864.85454    
      9900  -119313.09      636.85597     -118676.23      198.35322      199.5539       865.26677    
     10000  -119296.52      630.25003     -118666.27      198.32029      199.53657      865.679      
     10100  -119281.63      625.17014     -118656.46      198.28835      199.51898      866.09123    
     10200  -119269.87      631.49015     -118638.38      198.25536      199.49923      866.50346    
     10300  -119241.99      628.70119     -118613.29      198.22434      199.48076      866.91568    
     10400  -119223.52      637.70541     -118585.82      198.19183      199.4595       867.32791    
     10500  -119205.15      639.76407     -118565.39      198.16076      199.43928      867.74014    
     10600  -119187.3       634.22057     -118553.08      198.1292       199.41827      868.15237    
     10700  -119175.68      632.67053     -118543.01      198.0967       199.39633      868.5646     
     10800  -119154.28      627.69734     -118526.58      198.06531      199.37544      868.97683    
     10900  -119131.39      629.92112     -118501.47      198.03217      199.35301      869.38905    
     11000  -119108.95      636.6477      -118472.3       197.99984      199.33182      869.80128    
     11100  -119089.12      640.71136     -118448.41      197.96688      199.31059      870.21351    
     11200  -119070.48      637.0305      -118433.45      197.93237      199.28873      870.62574    
     11300  -119050.58      628.71031     -118421.87      197.8987       199.26845      871.03797    
     11400  -119031.88      626.68747     -118405.19      197.86301      199.24719      871.45019    
     11500  -119007.02      626.46147     -118380.56      197.82767      199.22732      871.86242    
     11600  -118983.22      631.80756     -118351.41      197.79137      199.20787      872.27465    
     11700  -118967.13      640.45183     -118326.68      197.75438      199.18879      872.68688    
     11800  -118950.01      639.03927     -118310.97      197.71712      199.17038      873.09911    
     11900  -118924.99      626.14884     -118298.84      197.67859      199.15176      873.51133    
     12000  -118912.17      631.37143     -118280.8       197.6401       199.13409      873.92356    
     12100  -118886.29      630.77795     -118255.51      197.60099      199.11679      874.33579    
     12200  -118853.41      628.3054      -118225.11      197.56116      199.0994       874.74802    
     12300  -118835.66      637.45323     -118198.21      197.52211      199.08338      875.16025    
     12400  -118815.55      636.61458     -118178.93      197.48168      199.06624      875.57247    
     12500  -118802.46      637.71172     -118164.74      197.44193      199.05007      875.9847     
     12600  -118781.18      633.68194     -118147.5       197.40166      199.03333      876.39693    
     12700  -118753.22      629.65786     -118123.56      197.36186      199.01697      876.80916    
     12800  -118735.36      640.54073     -118094.82      197.32248      199.00058      877.22139    
     12900  -118701.47      633.33436     -118068.14      197.28327      198.98365      877.63362    
     13000  -118682.16      635.57644     -118046.58      197.24469      198.96615      878.04584    
     13100  -118658.09      628.92769     -118029.16      197.20682      198.94852      878.45807    
     13200  -118642.35      632.33654     -118010.02      197.16953      198.92991      878.8703     
     13300  -118619.53      632.58538     -117986.94      197.13348      198.91122      879.28253    
     13400  -118591.98      633.06143     -117958.92      197.09796      198.89178      879.69476    
     13500  -118565.11      634.96812     -117930.14      197.06382      198.87212      880.10698    
     13600  -118544.92      638.60386     -117906.31      197.03052      198.85196      880.51921    
     13700  -118524.78      635.35653     -117889.42      196.99755      198.83069      880.93144    
     13800  -118500.34      629.22407     -117871.11      196.96623      198.81005      881.34367    
     13900  -118473.55      628.90726     -117844.65      196.93486      198.7881       881.7559     
     14000  -118450.4       636.98828     -117813.41      196.90546      198.76704      882.16812    
     14100  -118420.13      633.12578     -117787         196.87584      198.7452       882.58035    
     14200  -118400.52      635.49207     -117765.03      196.84679      198.72297      882.99258    
     14300  -118373.18      628.24367     -117744.94      196.81887      198.70142      883.40481    
     14400  -118352.15      629.64829     -117722.5       196.79015      198.67919      883.81704    
     14500  -118322.43      627.24673     -117695.18      196.76336      198.65895      884.22926    
     14600  -118299.86      638.78848     -117661.07      196.73552      198.63763      884.64149    
     14700  -118266.01      631.66971     -117634.34      196.70812      198.61748      885.05372    
     14800  -118249.53      634.4843      -117615.04      196.68056      198.59782      885.46595    
     14900  -118222.35      625.45316     -117596.89      196.65272      198.57848      885.87818    
     15000  -118204.45      632.91996     -117571.53      196.62536      198.56056      886.29041    
     15100  -118175.34      632.8008      -117542.54      196.59693      198.5425       886.70263    
     15200  -118142.91      631.10255     -117511.81      196.56908      198.52611      887.11486    
     15300  -118118.84      636.52718     -117482.31      196.54087      198.51049      887.52709    
     15400  -118091.76      635.26322     -117456.5       196.51179      198.49497      887.93932    
     15500  -118070.04      630.78939     -117439.25      196.48387      198.48107      888.35155    
     15600  -118048.4       630.26616     -117418.13      196.45513      198.46706      888.76377    
     15700  -118018.81      630.71685     -117388.1       196.4266       198.45389      889.176      
     15800  -117986.04      632.83759     -117353.21      196.39878      198.44196      889.58823    
     15900  -117962.34      636.46115     -117325.88      196.3705       198.42967      890.00046    
     16000  -117936.18      633.7251      -117302.46      196.34302      198.41871      890.41269    
     16100  -117912.35      632.61835     -117279.73      196.31556      198.40726      890.82491    
     16200  -117889.19      634.8961      -117254.3       196.2885       198.39588      891.23714    
     16300  -117855.21      633.90988     -117221.3       196.26328      198.3855       891.64937    
     16400  -117820.87      636.84307     -117184.02      196.23729      198.37373      892.0616     
     16500  -117796.49      636.18051     -117160.31      196.21371      198.36353      892.47383    
     16600  -117774.97      633.83664     -117141.14      196.18935      198.35166      892.88605    
     16700  -117746.08      629.81574     -117116.26      196.16657      198.34041      893.29828    
     16800  -117716.02      630.26694     -117085.75      196.14522      198.32896      893.71051    
     16900  -117683.47      635.63658     -117047.83      196.1239       198.31619      894.12274    
     17000  -117652.63      635.5263      -117017.11      196.10526      198.30458      894.53497    
     17100  -117625.56      633.0497      -116992.51      196.08575      198.29053      894.9472     
     17200  -117600.87      632.24654     -116968.62      196.06842      198.27731      895.35942    
     17300  -117575.63      631.9562      -116943.67      196.05188      198.26373      895.77165    
     17400  -117548.39      631.33232     -116917.05      196.03528      198.24858      896.18388    
     17500  -117521.04      634.27326     -116886.77      196.02074      198.23466      896.59611    
     17600  -117488.02      637.03913     -116850.98      196.00569      198.21926      897.00834    
     17700  -117455.12      637.87028     -116817.25      195.99192      198.20464      897.42056    
     17800  -117423.55      633.36013     -116790.19      195.9784       198.18969      897.83279    
     17900  -117401.84      631.20176     -116770.64      195.96456      198.1741       898.24502    
     18000  -117378.08      633.74246     -116744.34      195.95242      198.16015      898.65725    
     18100  -117339.78      628.84468     -116710.93      195.93874      198.14465      899.06948    
     18200  -117308.4       630.72663     -116677.68      195.92616      198.13087      899.4817     
     18300  -117273.87      628.5328      -116645.34      195.91294      198.11708      899.89393    
     18400  -117254.47      639.9457      -116614.53      195.89937      198.10344      900.30616    
     18500  -117217.23      629.85097     -116587.38      195.88666      198.0914       900.71839    
     18600  -117197.56      631.14375     -116566.42      195.87228      198.0786       901.13062    
     18700  -117166.1       629.53421     -116536.57      195.85867      198.06738      901.54284    
     18800  -117130.7       633.11094     -116497.59      195.84429      198.05653      901.95507    
     18900  -117089.94      627.50974     -116462.43      195.82929      198.04626      902.3673     
     19000  -117066.26      633.531       -116432.73      195.81463      198.03741      902.77953    
     19100  -117041.46      634.06475     -116407.39      195.79892      198.02848      903.19176    
     19200  -117012.36      626.24813     -116386.11      195.78324      198.02056      903.60399    
     19300  -116983.57      627.74589     -116355.83      195.767        198.01328      904.01621    
     19400  -116943.53      632.65082     -116310.88      195.75077      198.00677      904.42844    
     19500  -116910.65      633.74916     -116276.91      195.73422      198.00064      904.84067    
     19600  -116879.2       634.50153     -116244.69      195.71742      197.99452      905.2529     
     19700  -116853.65      637.26734     -116216.38      195.70108      197.98897      905.66513    
     19800  -116824.3       633.75731     -116190.54      195.68454      197.98287      906.07735    
     19900  -116791.18      629.11371     -116162.07      195.66865      197.97738      906.48958    
     20000  -116756.07      633.24002     -116122.83      195.65255      197.97124      906.90181    
     20100  -116717.84      634.29838     -116083.54      195.63717      197.96519      907.31404    
     20200  -116691.39      639.94028     -116051.45      195.62202      197.95889      907.72627    
     20300  -116652.15      627.44048     -116024.71      195.60726      197.95228      908.13849    
     20400  -116622.81      622.6548      -116000.16      195.59323      197.94524      908.55072    
     20500  -116596.89      629.92723     -115966.96      195.57926      197.93704      908.96295    
     20600  -116560.15      636.66336     -115923.49      195.56711      197.92935      909.37518    
     20700  -116524.13      635.81665     -115888.31      195.55416      197.9194       909.78741    
     20800  -116494.7       635.16373     -115859.54      195.54306      197.91025      910.19963    
     20900  -116460.56      628.7103      -115831.85      195.53209      197.90002      910.61186    
     21000  -116432.31      631.64439     -115800.67      195.52117      197.88902      911.02409    
     21100  -116391.7       629.90218     -115761.8       195.51182      197.8787       911.43632    
     21200  -116358.51      637.27472     -115721.23      195.50187      197.86653      911.84855    
     21300  -116328.03      637.76644     -115690.26      195.4938       197.85537      912.26078    
     21400  -116293.59      631.13031     -115662.46      195.48469      197.84227      912.673      
     21500  -116260.36      629.01596     -115631.34      195.47651      197.82972      913.08523    
     21600  -116229.59      632.1978      -115597.39      195.46946      197.81786      913.49746    
     21700  -116194.64      632.10372     -115562.54      195.46019      197.80412      913.90969    
     21800  -116162.04      635.6912      -115526.34      195.45272      197.79235      914.32192    
     21900  -116123.27      637.11883     -115486.15      195.44408      197.77965      914.73414    
     22000  -116075.76      632.11939     -115443.64      195.43538      197.7672       915.14637    
     22100  -116046         632.2832      -115413.71      195.42707      197.75568      915.5586     
     22200  -116018.15      632.29804     -115385.86      195.41663      197.74273      915.97083    
     22300  -115982.69      628.92641     -115353.76      195.40805      197.73232      916.38306    
     22400  -115953.69      631.91885     -115321.77      195.39698      197.72086      916.79528    
     22500  -115918.1       631.42031     -115286.68      195.38554      197.71024      917.20751    
     22600  -115877.87      632.14471     -115245.73      195.37452      197.70146      917.61974    
     22700  -115847.73      642.30904     -115205.42      195.36099      197.69117      918.03197    
     22800  -115807.98      634.74584     -115173.23      195.34852      197.68281      918.4442     
     22900  -115782.25      632.26877     -115149.98      195.33458      197.67384      918.85642    
     23000  -115743.45      626.89673     -115116.55      195.32028      197.66552      919.26865    
     23100  -115710.47      633.34908     -115077.12      195.30638      197.65874      919.68088    
     23200  -115668.12      631.51133     -115036.61      195.29019      197.65036      920.09311    
     23300  -115635.42      636.1093      -114999.31      195.27511      197.64398      920.50534    
     23400  -115602.16      633.62999     -114968.53      195.25939      197.63726      920.91757    
     23500  -115572.98      629.54158     -114943.43      195.24256      197.62981      921.32979    
     23600  -115535.46      628.88159     -114906.58      195.22757      197.62398      921.74202    
     23700  -115493.99      631.36043     -114862.63      195.21055      197.61589      922.15425    
     23800  -115451.55      627.909       -114823.64      195.19567      197.60957      922.56648    
     23900  -115417.79      630.2353      -114787.56      195.17989      197.60226      922.97871    
     24000  -115384.66      632.50054     -114752.16      195.16318      197.59339      923.39093    
     24100  -115345.88      628.69404     -114717.19      195.14984      197.5872       923.80316    
     24200  -115313.92      634.00351     -114679.92      195.13359      197.57713      924.21539    
     24300  -115275.39      635.24789     -114640.14      195.11989      197.56849      924.62762    
     24400  -115234.91      635.00532     -114599.9       195.10672      197.55895      925.03985    
     24500  -115202.01      638.70226     -114563.31      195.09235      197.54708      925.45207    
     24600  -115167.64      631.96856     -114535.67      195.08095      197.53717      925.8643     
     24700  -115133.7       629.97941     -114503.72      195.06728      197.52387      926.27653    
     24800  -115096.66      634.11805     -114462.54      195.05598      197.51208      926.68876    
     24900  -115052.36      632.33817     -114420.02      195.04527      197.49956      927.10099    
     25000  -115012.84      630.47699     -114382.36      195.03263      197.48421      927.51321    
     25100  -114979.1       633.85411     -114345.24      195.02298      197.47122      927.92544    
     25200  -114947.21      640.37897     -114306.83      195.01158      197.45558      928.33767    
     25300  -114898.3       632.37197     -114265.92      195.00151      197.44061      928.7499     
     25400  -114853.64      628.48708     -114225.16      194.99134      197.42508      929.16213    
     25500  -114821.34      630.82871     -114190.51      194.97995      197.4083       929.57436    
     25600  -114792         629.39525     -114162.6       194.97053      197.39355      929.98658    
     25700  -114756.27      628.74201     -114127.52      194.95844      197.37649      930.39881    
     25800  -114711.67      626.2143      -114085.46      194.9473       197.36046      930.81104    
     25900  -114670.58      627.39742     -114043.18      194.93695      197.34577      931.22327    
     26000  -114640.09      635.17162     -114004.92      194.92355      197.32858      931.6355     
     26100  -114599.78      631.71802     -113968.06      194.91206      197.31425      932.04772    
     26200  -114564.29      632.43037     -113931.86      194.89851      197.29906      932.45995    
     26300  -114524.37      626.46539     -113897.91      194.88436      197.28422      932.87218    
     26400  -114491.06      626.57325     -113864.49      194.87144      197.27186      933.28441    
     26500  -114447.34      625.32991     -113822.01      194.85466      197.25663      933.69664    
     26600  -114409.55      634.85792     -113774.69      194.84057      197.24542      934.10886    
     26700  -114365.26      631.1079      -113734.15      194.82413      197.23288      934.52109    
     26800  -114327.61      629.5197      -113698.09      194.80684      197.22031      934.93332    
     26900  -114297.04      631.25411     -113665.78      194.79064      197.20999      935.34555    
     27000  -114259.53      624.17961     -113635.35      194.77172      197.19774      935.75778    
     27100  -114225.45      632.83128     -113592.62      194.75428      197.1878       936.17       
     27200  -114172.97      630.11524     -113542.85      194.73582      197.17734      936.58223    
     27300  -114132.08      631.54044     -113500.54      194.71589      197.16567      936.99446    
     27400  -114095.64      636.02723     -113459.61      194.69845      197.15676      937.40669    
     27500  -114055.17      634.23553     -113420.93      194.6778       197.14452      937.81892    
     27600  -114020.04      633.1791      -113386.86      194.65885      197.13426      938.23115    
     27700  -113981.92      627.95203     -113353.96      194.63986      197.12352      938.64337    
     27800  -113946.6       633.33405     -113313.26      194.61945      197.11106      939.0556     
     27900  -113895.75      633.05991     -113262.69      194.60217      197.10114      939.46783    
     28000  -113856.11      634.69307     -113221.41      194.58206      197.08738      939.88006    
     28100  -113817.72      633.52177     -113184.2       194.56394      197.07468      940.29229    
     28200  -113784.75      634.49522     -113150.26      194.54716      197.0624       940.70451    
     28300  -113750.85      632.57644     -113118.27      194.52824      197.04672      941.11674    
     28400  -113705.78      626.5057      -113079.28      194.51233      197.03343      941.52897    
     28500  -113659.49      632.82354     -113026.66      194.495        197.01735      941.9412     
     28600  -113620.39      637.6837      -112982.71      194.4792       197.00182      942.35343    
     28700  -113578.22      636.32124     -112941.9       194.46463      196.9864       942.76565    
     28800  -113533.44      629.67086     -112903.77      194.44755      196.96738      943.17788    
     28900  -113492.05      623.7654      -112868.29      194.43443      196.95147      943.59011    
     29000  -113459         627.88734     -112831.11      194.41949      196.93282      944.00234    
     29100  -113413.83      630.44546     -112783.38      194.40394      196.91323      944.41457    
     29200  -113371.86      636.22067     -112735.64      194.39191      196.89658      944.82679    
     29300  -113328.18      632.42781     -112695.75      194.37585      196.87586      945.23902    
     29400  -113292.29      632.94209     -112659.35      194.36211      196.85718      945.65125    
     29500  -113253.38      627.48663     -112625.89      194.34826      196.83853      946.06348    
     29600  -113211.88      621.13389     -112590.74      194.3321       196.81743      946.47571    
     29700  -113171.42      629.78498     -112541.64      194.31875      196.79947      946.88794    
     29800  -113122.09      629.51052     -112492.58      194.3021       196.77884      947.30016    
     29900  -113086.02      637.24522     -112448.78      194.28632      196.76003      947.71239    
     30000  -113040.26      633.28307     -112406.98      194.27081      196.74222      948.12462    
     30100  -113004.52      635.26571     -112369.25      194.2522       196.72232      948.53685    
     30200  -112962.41      626.63146     -112335.78      194.23573      196.7051       948.94908    
     30300  -112928.03      631.63371     -112296.4       194.21733      196.68675      949.3613     
     30400  -112876.51      632.92425     -112243.59      194.19839      196.66908      949.77353    
     30500  -112833.35      634.35066     -112199         194.1806       196.65357      950.18576    
     30600  -112795.3       636.03288     -112159.27      194.15928      196.63586      950.59799    
     30700  -112753.76      630.3569      -112123.4       194.13984      196.62075      951.01022    
     30800  -112718.9       631.86944     -112087.03      194.11926      196.60534      951.42244    
     30900  -112667.9       627.42399     -112040.48      194.0968       196.589        951.83467    
     31000  -112625.48      636.59279     -111988.89      194.07694      196.57601      952.2469     
     31100  -112582.71      636.14944     -111946.56      194.05324      196.5599       952.65913    
     31200  -112542.03      632.7581      -111909.28      194.03175      196.5464       953.07136    
     31300  -112506.07      632.01055     -111874.06      194.00978      196.53261      953.48358    
     31400  -112463.35      628.44349     -111834.91      193.98569      196.51682      953.89581    
     31500  -112415.94      633.43811     -111782.5       193.96468      196.50428      954.30804    
     31600  -112373.17      639.16331     -111734.01      193.94136      196.48877      954.72027    
     31700  -112327.27      635.94161     -111691.33      193.91841      196.47341      955.1325     
     31800  -112285.35      632.86265     -111652.49      193.89732      196.45956      955.54473    
     31900  -112245.8       630.31602     -111615.49      193.8738       196.44231      955.95695    
     32000  -112202.48      626.37482     -111576.11      193.85288      196.42722      956.36918    
     32100  -112156.23      631.14625     -111525.08      193.83135      196.4103       956.78141    
     32200  -112103.83      627.48784     -111476.34      193.80977      196.39233      957.19364    
     32300  -112068.45      635.62509     -111432.82      193.79016      196.3755       957.60587    
     32400  -112032.54      639.38144     -111393.15      193.76905      196.35607      958.01809    
     32500  -111986.14      626.887       -111359.25      193.74941      196.337        958.43032    
     32600  -111947.97      629.28467     -111318.69      193.73036      196.31758      958.84255    
     32700  -111899.73      634.69497     -111265.04      193.711        196.29667      959.25478    
     32800  -111852.3       633.81305     -111218.48      193.693        196.27612      959.66701    
     32900  -111806.68      628.69952     -111177.98      193.67531      196.25505      960.07923    
     33000  -111765.98      627.0843      -111138.9       193.65651      196.23228      960.49146    
     33100  -111727.46      629.04483     -111098.42      193.64003      196.21121      960.90369    
     33200  -111682.22      630.20027     -111052.02      193.62237      196.18839      961.31592    
     33300  -111632.91      632.46916     -111000.44      193.6051       196.16549      961.72815    
     33400  -111589.29      632.65992     -110956.63      193.5895       196.14417      962.14037    
     33500  -111545.31      627.34427     -110917.97      193.57116      196.11978      962.5526     
     33600  -111512.7       628.00239     -110884.7       193.55596      196.0988       962.96483    
     33700  -111466.3       625.27694     -110841.02      193.53827      196.07586      963.37706    
     33800  -111424.07      632.06374     -110792.01      193.5202       196.05305      963.78929    
     33900  -111367.79      624.29673     -110743.5       193.50464      196.03351      964.20152    
     34000  -111331.11      636.95739     -110694.15      193.48459      196.01         964.61374    
     34100  -111285.35      637.39817     -110647.95      193.46766      195.99036      965.02597    
     34200  -111239.02      632.09098     -110606.93      193.449        195.97052      965.4382     
     34300  -111199.37      625.68568     -110573.68      193.42748      195.94913      965.85043    
     34400  -111157.61      626.49979     -110531.11      193.40979      195.93223      966.26266    
     34500  -111104.99      625.79715     -110479.2       193.38762      195.9119       966.67488    
     34600  -111066.86      635.32802     -110431.53      193.36697      195.89425      967.08711    
     34700  -111020.2       634.6202      -110385.58      193.34677      195.87805      967.49934    
     34800  -110973.12      634.1358      -110338.98      193.32237      195.85897      967.91157    
     34900  -110927.29      634.01673     -110293.28      193.30188      195.84463      968.3238     
     35000  -110884.74      635.45422     -110249.28      193.27833      195.82788      968.73602    
     35100  -110844.9       634.90654     -110209.99      193.25426      195.81143      969.14825    
     35200  -110802.91      632.24551     -110170.66      193.23312      195.79816      969.56048    
     35300  -110752.69      629.32989     -110123.36      193.20773      195.78112      969.97271    
     35400  -110704.22      635.30446     -110068.91      193.18541      195.76735      970.38494    
     35500  -110658.65      635.4862      -110023.16      193.16227      195.75265      970.79716    
     35600  -110613.36      630.65405     -109982.71      193.13799      195.73666      971.20939    
     35700  -110569.12      625.34552     -109943.77      193.11654      195.72296      971.62162    
     35800  -110532.79      631.85261     -109900.94      193.0929       195.70683      972.03385    
     35900  -110480.41      631.81918     -109848.59      193.07098      195.69163      972.44608    
     36000  -110427.14      630.5762      -109796.56      193.04936      195.67622      972.85831    
     36100  -110390.29      639.97089     -109750.32      193.02699      195.65887      973.27053    
     36200  -110341.5       631.01184     -109710.49      193.00711      195.6431       973.68276    
     36300  -110304.07      631.37141     -109672.7       192.98593      195.62534      974.09499    
     36400  -110257.07      629.23703     -109627.83      192.96554      195.60714      974.50722    
     36500  -110203.64      633.26335     -109570.38      192.94724      195.59013      974.91945    
     36600  -110157.04      633.25083     -109523.79      192.92723      195.56997      975.33167    
     36700  -110116.87      632.8642      -109484         192.90932      195.55079      975.7439     
     36800  -110071.88      627.33765     -109444.54      192.89208      195.5313       976.15613    
     36900  -110027.05      629.95085     -109397.1       192.87365      195.50972      976.56836    
     37000  -109978.1       637.62258     -109340.47      192.8584       195.49051      976.98059    
     37100  -109928.75      634.98368     -109293.77      192.84146      195.46824      977.39281    
     37200  -109891.44      637.32649     -109254.11      192.82556      195.44657      977.80504    
     37300  -109847.09      633.31317     -109213.78      192.81092      195.42595      978.21727    
     37400  -109795.95      625.86307     -109170.09      192.79477      195.4034       978.6295     
     37500  -109753.15      634.17496     -109118.98      192.78047      195.38276      979.04173    
     37600  -109703.48      639.4098      -109064.07      192.76531      195.36113      979.45395    
     37700  -109657.89      636.56227     -109021.33      192.74964      195.33875      979.86618    
     37800  -109620.4       636.92073     -108983.48      192.73602      195.31891      980.27841    
     37900  -109567.09      626.37761     -108940.71      192.71999      195.29711      980.69064    
     38000  -109528.03      635.58708     -108892.44      192.70442      195.27674      981.10287    
     38100  -109471.81      628.05748     -108843.75      192.69001      195.2582       981.5151     
     38200  -109425.27      628.47199     -108796.79      192.67234      195.23779      981.92732    
     38300  -109378.47      628.42162     -108750.05      192.65646      195.21957      982.33955    
     38400  -109334.53      630.84212     -108703.69      192.64057      195.20206      982.75178    
     38500  -109289.56      632.69425     -108656.86      192.62183      195.18295      983.16401    
     38600  -109241.12      640.67304     -108600.45      192.60517      195.16741      983.57624    
     38700  -109189.82      637.73198     -108552.09      192.58636      195.15116      983.98846    
     38800  -109148.1       633.71618     -108514.38      192.5663       195.13446      984.40069    
     38900  -109108.48      634.17229     -108474.31      192.54832      195.12058      984.81292    
     39000  -109055.25      627.64244     -108427.6       192.52769      195.10457      985.22515    
     39100  -109008.59      633.7379      -108374.86      192.50758      195.09037      985.63738    
     39200  -108960.71      639.25093     -108321.46      192.4877       195.07716      986.0496     
     39300  -108912.17      635.50885     -108276.66      192.46546      195.06243      986.46183    
     39400  -108863.8       629.92934     -108233.87      192.44514      195.05007      986.87406    
     39500  -108821.42      630.78047     -108190.64      192.42344      195.03652      987.28629    
     39600  -108782.3       632.94861     -108149.35      192.40215      195.02329      987.69852    
     39700  -108731.91      625.6362      -108106.27      192.38159      195.0108       988.11074    
     39800  -108690.61      635.3021      -108055.31      192.35969      194.99723      988.52297    
     39900  -108634.08      634.80588     -107999.28      192.33969      194.98521      988.9352     
     40000  -108592.75      639.93544     -107952.81      192.31877      194.97157      989.34743    
     40100  -108541.07      629.15899     -107911.91      192.29859      194.95759      989.75966    
     40200  -108503.07      631.36554     -107871.71      192.28051      194.94495      990.17189    
     40300  -108453.53      625.4109      -107828.12      192.26099      194.93013      990.58411    
     40400  -108407.35      631.82707     -107775.52      192.24262      194.91573      990.99634    
     40500  -108350.27      630.79768     -107719.47      192.22597      194.9018       991.40857    
     40600  -108303.12      633.44509     -107669.68      192.20845      194.88544      991.8208     
     40700  -108265.44      639.58863     -107625.85      192.19257      194.86924      992.23303    
     40800  -108214.48      628.13466     -107586.34      192.17769      194.8532       992.64525    
     40900  -108172.93      630.1854      -107542.74      192.16195      194.83547      993.05748    
     41000  -108117.68      630.25969     -107487.42      192.14832      194.81917      993.46971    
     41100  -108068.12      635.15792     -107432.96      192.1341       194.80137      993.88194    
     41200  -108028.68      639.92637     -107388.76      192.12055      194.78281      994.29417    
     41300  -107982.55      633.89643     -107348.65      192.10866      194.76511      994.70639    
     41400  -107934.91      629.98679     -107304.92      192.0954       194.74523      995.11862    
     41500  -107885.09      632.89991     -107252.19      192.08327      194.72657      995.53085    
     41600  -107835.5       641.08452     -107194.41      192.07225      194.70882      995.94308    
     41700  -107786.09      635.95742     -107150.14      192.05917      194.68875      996.35531    
     41800  -107745.1       635.04493     -107110.05      192.04815      194.67063      996.76753    
     41900  -107697.03      629.84389     -107067.19      192.03667      194.65191      997.17976    
     42000  -107650.28      631.73646     -107018.55      192.02381      194.63239      997.59199    
     42100  -107594.43      633.59159     -106960.84      192.01386      194.61642      998.00422    
     42200  -107542.78      633.29956     -106909.48      192.00045      194.59736      998.41645    
     42300  -107505.23      638.98625     -106866.24      191.98812      194.58036      998.82868    
     42400  -107458.69      634.70321     -106823.99      191.97681      194.56502      999.2409     
     42500  -107404.49      626.51474     -106777.97      191.96183      194.54672      999.65313    
     42600  -107362.64      634.238       -106728.4       191.95009      194.53287      1000.0654    
     42700  -107309.01      640.45754     -106668.55      191.93565      194.5173       1000.4776    
     42800  -107258.95      638.80804     -106620.15      191.91987      194.50158      1000.8898    
     42900  -107212.87      632.81751     -106580.05      191.90725      194.48969      1001.302     
     43000  -107169.83      632.33884     -106537.49      191.88996      194.47459      1001.7143    
     43100  -107113.75      623.41316     -106490.34      191.87373      194.46156      1002.1265    
     43200  -107072.55      634.6595      -106437.89      191.85857      194.45053      1002.5387    
     43300  -107022.42      642.04029     -106380.38      191.83954      194.437        1002.951     
     43400  -106976.42      643.07076     -106333.35      191.82375      194.42724      1003.3632    
     43500  -106925.33      635.02523     -106290.3       191.8052       194.41603      1003.7754    
     43600  -106878.62      630.17316     -106248.45      191.78604      194.40441      1004.1876    
     43700  -106837.19      632.1297      -106205.06      191.76934      194.39573      1004.5999    
     43800  -106791.75      633.24968     -106158.5       191.74939      194.38426      1005.0121    
     43900  -106732.58      629.91629     -106102.66      191.73046      194.37414      1005.4243    
     44000  -106689.54      641.47628     -106048.07      191.71352      194.36579      1005.8366    
     44100  -106645.82      641.26644     -106004.56      191.69374      194.35456      1006.2488    
     44200  -106594.77      632.76524     -105962.01      191.67626      194.34522      1006.661     
     44300  -106546.46      631.51537     -105914.95      191.65896      194.33513      1007.0732    
     44400  -106495.11      630.1131      -105864.99      191.64059      194.3232       1007.4855    
     44500  -106450.74      637.80173     -105812.94      191.6254       194.31396      1007.8977    
     44600  -106397.34      641.83226     -105755.51      191.60854      194.30198      1008.3099    
     44700  -106345.43      636.34701     -105709.08      191.5921       194.28945      1008.7221    
     44800  -106301.04      630.92368     -105670.12      191.57818      194.27852      1009.1344    
     44900  -106257.33      632.36297     -105624.97      191.56302      194.26461      1009.5466    
     45000  -106209.89      633.39041     -105576.49      191.54938      194.25133      1009.9588    
     45100  -106157.33      632.75751     -105524.57      191.53693      194.23838      1010.3711    
     45200  -106106.53      639.00528     -105467.52      191.52282      194.22261      1010.7833    
     45300  -106060.52      642.17359     -105418.35      191.51143      194.20856      1011.1955    
     45400  -106015.49      634.66248     -105380.83      191.49987      194.19308      1011.6077    
     45500  -105968.65      634.06013     -105334.59      191.48776      194.17618      1012.02      
     45600  -105919.2       636.10991     -105283.09      191.47744      194.16019      1012.4322    
     45700  -105862.77      633.77288     -105229         191.46666      194.1434       1012.8444    
     45800  -105813.76      636.96174     -105176.8       191.45598      194.12602      1013.2567    
     45900  -105770.12      636.77399     -105133.34      191.44632      194.10899      1013.6689    
     46000  -105723.01      629.05165     -105093.96      191.43578      194.09079      1014.0811    
     46100  -105680.21      634.94995     -105045.26      191.42534      194.0726       1014.4933    
     46200  -105625.72      634.94133     -104990.78      191.41588      194.05556      1014.9056    
     46300  -105575.06      638.66808     -104936.4       191.40543      194.03776      1015.3178    
     46400  -105524.74      634.01353     -104890.73      191.39525      194.02011      1015.73      
     46500  -105487.81      634.43718     -104853.37      191.38506      194.00288      1016.1423    
     46600  -105432.78      628.04968     -104804.73      191.37479      193.98622      1016.5545    
     46700  -105387.18      637.02419     -104750.16      191.36321      193.96939      1016.9667    
     46800  -105329.18      634.87069     -104694.3       191.35217      193.95385      1017.3789    
     46900  -105278.87      633.85514     -104645.01      191.34032      193.93829      1017.7912    
     47000  -105235.64      627.86589     -104607.78      191.3277       193.92293      1018.2034    
     47100  -105189.17      627.98943     -104561.18      191.31609      193.90917      1018.6156    
     47200  -105142.09      635.50763     -104506.58      191.30236      193.89464      1019.0279    
     47300  -105084.47      632.483       -104451.99      191.2886       193.88147      1019.4401    
     47400  -105038.74      637.84506     -104400.9       191.27493      193.86951      1019.8523    
     47500  -104992.85      631.98563     -104360.87      191.25939      193.85649      1020.2645    
     47600  -104944.91      628.35235     -104316.55      191.24458      193.84492      1020.6768    
     47700  -104899.27      635.46529     -104263.81      191.22964      193.83391      1021.089     
     47800  -104840.6       632.36924     -104208.23      191.21271      193.82243      1021.5012    
     47900  -104793.31      636.05962     -104157.25      191.19648      193.81251      1021.9134    
     48000  -104748.22      632.12396     -104116.1       191.18032      193.80298      1022.3257    
     48100  -104703.66      629.34188     -104074.32      191.16218      193.79195      1022.7379    
     48200  -104651.79      632.58943     -104019.2       191.14606      193.78341      1023.1501    
     48300  -104598.47      634.78958     -103963.68      191.12854      193.77375      1023.5624    
     48400  -104550.47      637.57388     -103912.89      191.11042      193.76364      1023.9746    
     48500  -104506.47      634.58725     -103871.88      191.09348      193.75491      1024.3868    
     48600  -104456.14      628.59581     -103827.55      191.07641      193.74562      1024.799     
     48700  -104404.2       629.47767     -103774.73      191.05932      193.736        1025.2113    
     48800  -104354.36      634.86219     -103719.5       191.0428       193.72661      1025.6235    
     48900  -104304.12      638.13561     -103665.99      191.02626      193.71657      1026.0357    
     49000  -104262.49      643.06528     -103619.42      191.00984      193.70601      1026.448     
     49100  -104207.72      628.49359     -103579.23      190.99466      193.69593      1026.8602    
     49200  -104158.37      630.16662     -103528.2       190.97884      193.68401      1027.2724    
     49300  -104110.09      638.7133      -103471.37      190.96439      193.6724       1027.6846    
     49400  -104054.62      637.067       -103417.55      190.95081      193.66061      1028.0969    
     49500  -104006.29      634.27286     -103372.02      190.93589      193.64634      1028.5091    
     49600  -103959.74      628.0016      -103331.73      190.92364      193.63395      1028.9213    
     49700  -103905.83      625.25437     -103280.58      190.91082      193.61986      1029.3336    
     49800  -103856.86      632.52385     -103224.34      190.89716      193.60371      1029.7458    
     49900  -103810.25      641.30484     -103168.94      190.88646      193.58943      1030.158     
     50000  -103756.93      635.32595     -103121.6       190.87468      193.57327      1030.5702    
     50100  -103715.89      632.62992     -103083.26      190.86281      193.55623      1030.9825    
     50200  -103665.16      630.76116     -103034.4       190.85365      193.54105      1031.3947    
     50300  -103610.9       631.50089     -102979.4       190.8417       193.52247      1031.8069    
     50400  -103563.21      640.47541     -102922.73      190.8315       193.50506      1032.2192    
     50500  -103514.22      638.12926     -102876.09      190.82265      193.48893      1032.6314    
     50600  -103462         626.75554     -102835.25      190.81104      193.46967      1033.0436    
     50700  -103416.33      632.70305     -102783.63      190.8022       193.45304      1033.4558    
     50800  -103366.94      635.87307     -102731.07      190.79266      193.43548      1033.8681    
     50900  -103312.38      631.7292      -102680.65      190.78155      193.41677      1034.2803    
     51000  -103267.54      633.2884      -102634.25      190.77244      193.40072      1034.6925    
     51100  -103218.22      628.78736     -102589.44      190.76197      193.3839       1035.1047    
     51200  -103169.28      629.57826     -102539.7       190.74995      193.36581      1035.517     
     51300  -103112.96      633.7942      -102479.16      190.74066      193.35058      1035.9292    
     51400  -103060.32      637.79205     -102422.52      190.72929      193.33415      1036.3414    
     51500  -103018.04      641.76175     -102376.28      190.71568      193.3171       1036.7537    
     51600  -102959.94      629.80325     -102330.14      190.70514      193.30432      1037.1659    
     51700  -102912.4       629.98165     -102282.42      190.69111      193.28884      1037.5781    
     51800  -102865.15      631.18808     -102233.96      190.67691      193.27398      1037.9903    
     51900  -102812.29      629.07129     -102183.22      190.66486      193.26199      1038.4026    
     52000  -102763.98      630.43064     -102133.55      190.64826      193.24704      1038.8148    
     52100  -102717.11      633.01037     -102084.1       190.63318      193.23486      1039.227     
     52200  -102667.2       632.7548      -102034.44      190.61786      193.22336      1039.6393    
     52300  -102618.83      633.5604      -101985.27      190.59951      193.20941      1040.0515    
     52400  -102563.25      628.9184      -101934.33      190.58438      193.19919      1040.4637    
     52500  -102518.66      637.15746     -101881.51      190.56695      193.18789      1040.8759    
     52600  -102467.09      634.65253     -101832.44      190.54718      193.17501      1041.2882    
     52700  -102421.6       636.30833     -101785.29      190.53099      193.16604      1041.7004    
     52800  -102366.56      627.55304     -101739.01      190.5126       193.15491      1042.1126    
     52900  -102313.25      624.23098     -101689.02      190.4932       193.1429       1042.5249    
     53000  -102263.63      632.29207     -101631.34      190.47616      193.13361      1042.9371    
     53100  -102206.76      635.27797     -101571.49      190.45646      193.12174      1043.3493    
     53200  -102165.01      639.95361     -101525.05      190.43888      193.11146      1043.7615    
     53300  -102112.33      632.21462     -101480.12      190.42166      193.10106      1044.1738    
     53400  -102063.62      632.40191     -101431.22      190.40267      193.08827      1044.586     
     53500  -102016.44      634.08534     -101382.36      190.38605      193.07808      1044.9982    
     53600  -101963.79      629.85312     -101333.94      190.36883      193.06641      1045.4105    
     53700  -101911.61      623.55694     -101288.05      190.35058      193.05272      1045.8227    
     53800  -101863.53      622.67077     -101240.86      190.33576      193.04148      1046.2349    
     53900  -101812.25      630.55012     -101181.7       190.31875      193.0271       1046.6471    
     54000  -101753.67      633.59629     -101120.07      190.30269      193.01272      1047.0594    
     54100  -101712.72      642.01133     -101070.7       190.28918      192.99998      1047.4716    
     54200  -101665.6       640.86795     -101024.74      190.2731       192.98364      1047.8838    
     54300  -101611         635.58065     -100975.42      190.25998      192.96898      1048.296     
     54400  -101559.12      632.69563     -100926.42      190.24663      192.95369      1048.7083    
     54500  -101510.35      631.98313     -100878.37      190.23182      192.93566      1049.1205    
     54600  -101462.95      633.98706     -100828.97      190.22077      192.92054      1049.5327    
     54700  -101415.82      632.2488      -100783.57      190.20734      192.90217      1049.945     
     54800  -101362.62      623.80103     -100738.82      190.19494      192.88432      1050.3572    
     54900  -101310.76      631.25963     -100679.5       190.18472      192.86807      1050.7694    
     55000  -101258.56      638.16473     -100620.4       190.17149      192.84807      1051.1816    
     55100  -101201.1       634.33587     -100566.76      190.16088      192.83036      1051.5939    
     55200  -101158.49      637.56565     -100520.93      190.1503       192.81228      1052.0061    
     55300  -101108.39      635.77251     -100472.62      190.13791      192.79244      1052.4183    
     55400  -101054.78      636.12049     -100418.66      190.12807      192.7751       1052.8306    
     55500  -101005.38      639.39187     -100365.99      190.11676      192.75632      1053.2428    
     55600  -100951.05      631.95341     -100319.09      190.10468      192.73704      1053.655     
     55700  -100906.09      636.08043     -100270.01      190.09371      192.71932      1054.0672    
     55800  -100850.68      633.90192     -100216.78      190.08168      192.70127      1054.4795    
     55900  -100793.22      630.91777     -100162.3       190.0688       192.68273      1054.8917    
     56000  -100748.3       635.1115      -100113.19      190.05693      192.66596      1055.3039    
     56100  -100699.69      634.03291     -100065.65      190.04354      192.64806      1055.7162    
     56200  -100643.21      629.74618     -100013.47      190.0296       192.6305       1056.1284    
     56300  -100592.91      633.2631      -99959.643      190.01644      192.61491      1056.5406    
     56400  -100541.64      632.71771     -99908.924      190.00092      192.59824      1056.9528    
     56500  -100496.72      634.83778     -99861.884      189.9852       192.58186      1057.3651    
     56600  -100444.82      635.25628     -99809.561      189.97067      192.56789      1057.7773    
     56700  -100384.18      629.54236     -99754.639      189.95354      192.552        1058.1895    
     56800  -100339.78      636.68434     -99703.099      189.93651      192.53737      1058.6017    
     56900  -100291         635.95636     -99655.04       189.92018      192.52433      1059.014     
     57000  -100238.75      634.43519     -99604.319      189.902        192.51042      1059.4262    
     57100  -100182.65      630.14315     -99552.51       189.88375      192.49675      1059.8384    
     57200  -100134.63      633.23187     -99501.394      189.86616      192.48439      1060.2507    
     57300  -100086.34      631.41965     -99454.921      189.84755      192.47125      1060.6629    
     57400  -100030.51      629.84372     -99400.669      189.82876      192.45843      1061.0751    
     57500  -99974.428      633.97885     -99340.449      189.8104       192.44702      1061.4873    
     57600  -99915.409      639.5564      -99275.853      189.7905       192.43416      1061.8996    
     57700  -99866.081      649.25322     -99216.828      189.7713       192.42193      1062.3118    
     57800  -99816.392      641.00884     -99175.383      189.75311      192.41037      1062.724     
     57900  -99758.344      629.3173      -99129.027      189.73399      192.39784      1063.1363    
     58000  -99714.68       632.76632     -99081.913      189.71473      192.3851       1063.5485    
     58100  -99663.419      631.10008     -99032.319      189.69685      192.3737       1063.9607    
     58200  -99609.065      627.94862     -98981.117      189.67715      192.36004      1064.3729    
     58300  -99559.267      631.12985     -98928.137      189.65878      192.34721      1064.7852    
     58400  -99505.444      630.39988     -98875.044      189.64106      192.33405      1065.1974    
     58500  -99454.712      627.43461     -98827.277      189.62169      192.31893      1065.6096    
     58600  -99402.859      629.09107     -98773.768      189.60484      192.30574      1066.0219    
     58700  -99345.559      628.97922     -98716.58       189.58701      192.29062      1066.4341    
     58800  -99303.178      641.83499     -98661.343      189.5695       192.27536      1066.8463    
     58900  -99249.861      632.29884     -98617.562      189.55272      192.25989      1067.2585    
     59000  -99192.693      629.99427     -98562.699      189.53564      192.24318      1067.6708    
     59100  -99145.175      639.28933     -98505.886      189.52051      192.22732      1068.083     
     59200  -99086.939      633.7992      -98453.14       189.5047       192.21011      1068.4952    
     59300  -99038.049      633.94314     -98404.106      189.48851      192.19183      1068.9075    
     59400  -98978.637      629.25632     -98349.38       189.47488      192.17549      1069.3197    
     59500  -98929.19       633.55398     -98295.636      189.45975      192.15644      1069.7319    
     59600  -98872.966      631.44264     -98241.523      189.44503      192.13721      1070.1441    
     59700  -98824.262      637.39541     -98186.866      189.43215      192.1195       1070.5564    
     59800  -98765.695      632.86026     -98132.835      189.41739      192.09949      1070.9686    
     59900  -98716.329      636.32796     -98080.001      189.40391      192.08034      1071.3808    
     60000  -98660.605      632.24824     -98028.357      189.39172      192.06184      1071.793     
     60100  -98602.056      627.30962     -97974.746      189.37735      192.04104      1072.2053    
     60200  -98552.441      631.5214      -97920.919      189.36492      192.02193      1072.6175    
     60300  -98501.018      632.669       -97868.349      189.35197      192.00238      1073.0297    
     60400  -98450.496      636.70279     -97813.793      189.33778      191.9815       1073.442     
     60500  -98400.315      641.43725     -97758.878      189.32594      191.96333      1073.8542    
     60600  -98337.805      632.62367     -97705.181      189.31217      191.94314      1074.2664    
     60700  -98285.253      635.83934     -97649.414      189.29772      191.92302      1074.6786    
     60800  -98224.875      629.30226     -97595.573      189.28511      191.90488      1075.0909    
     60900  -98179.159      636.61584     -97542.543      189.26982      191.88479      1075.5031    
     61000  -98129.859      641.05105     -97488.808      189.25616      191.86654      1075.9153    
     61100  -98067.867      632.72766     -97435.139      189.24202      191.84873      1076.3276    
     61200  -98015.013      633.98434     -97381.029      189.22586      191.82971      1076.7398    
     61300  -97963.629      638.25367     -97325.375      189.21184      191.81342      1077.152     
     61400  -97902.082      631.62747     -97270.455      189.19498      191.7953       1077.5642    
     61500  -97851.776      636.96331     -97214.812      189.17952      191.7793       1077.9765    
     61600  -97796.678      636.0296      -97160.649      189.16299      191.7632       1078.3887    
     61700  -97735.591      629.57964     -97106.012      189.14558      191.7468       1078.8009    
     61800  -97681.776      632.14797     -97049.628      189.12907      191.7321       1079.2132    
     61900  -97630.766      636.21663     -96994.549      189.11149      191.7171       1079.6254    
     62000  -97568.841      631.5635      -96937.277      189.09282      191.70179      1080.0376    
     62100  -97516.75       635.72578     -96881.024      189.07493      191.68768      1080.4498    
     62200  -97466.833      640.39118     -96826.442      189.05608      191.67335      1080.8621    
     62300  -97404.16       633.99962     -96770.16       189.03731      191.65953      1081.2743    
     62400  -97350.004      636.82868     -96713.175      189.01778      191.64572      1081.6865    
     62500  -97290.855      633.19036     -96657.664      188.9988       191.63267      1082.0988    
     62600  -97232.557      631.93775     -96600.62       188.97852      191.61825      1082.511     
     62700  -97183.811      639.03423     -96544.777      188.95972      191.60533      1082.9232    
     62800  -97123.612      635.46576     -96488.146      188.94024      191.59168      1083.3354    
     62900  -97069.496      638.17919     -96431.317      188.91996      191.57692      1083.7477    
     63000  -97009.483      635.32919     -96374.153      188.90178      191.56432      1084.1599    
     63100  -96953.513      636.99899     -96316.514      188.88193      191.54993      1084.5721    
     63200  -96896.46       638.56835     -96257.892      188.86264      191.5358       1084.9843    
     63300  -96834.231      632.61278     -96201.619      188.84425      191.5221       1085.3966    
     63400  -96783.896      640.1156      -96143.78       188.82467      191.50681      1085.8088    
     63500  -96720.628      634.92055     -96085.708      188.80747      191.49341      1086.221     
     63600  -96662.336      634.55697     -96027.779      188.7891       191.47756      1086.6333    
     63700  -96604.444      634.36764     -95970.076      188.77184      191.46248      1087.0455    
     63800  -96550.401      638.93761     -95911.464      188.75492      191.44686      1087.4577    
     63900  -96487.891      635.46131     -95852.429      188.73791      191.43046      1087.8699    
     64000  -96430.225      637.96274     -95792.262      188.72215      191.4151       1088.2822    
     64100  -96368.328      635.77009     -95732.558      188.70535      191.39784      1088.6944    
     64200  -96303.56       631.42694     -95672.133      188.6897       191.38128      1089.1066    
     64300  -96247.16       635.83138     -95611.329      188.67497      191.36473      1089.5189    
     64400  -96188.922      637.2468      -95551.675      188.65908      191.34618      1089.9311    
     64500  -96128.107      637.2398      -95490.867      188.64489      191.32862      1090.3433    
     64600  -96065.758      633.93414     -95431.824      188.63048      191.31074      1090.7555    
     64700  -96010.603      638.00052     -95372.602      188.61602      191.29205      1091.1678    
     64800  -95947.788      636.35735     -95311.431      188.60164      191.27344      1091.58      
     64900  -95887.255      636.26383     -95250.991      188.58771      191.25499      1091.9922    
     65000  -95823.35       633.29276     -95190.058      188.57369      191.23626      1092.4045    
     65100  -95759.837      632.25728     -95127.58       188.55916      191.21668      1092.8167    
     65200  -95702.503      634.58747     -95067.916      188.5465       191.19876      1093.2289    
     65300  -95643.471      636.16747     -95007.304      188.53199      191.1788       1093.6411    
     65400  -95583.003      639.34505     -94943.658      188.51856      191.15986      1094.0534    
     65500  -95518.36       637.55274     -94880.808      188.50595      191.14193      1094.4656    
     65600  -95451.875      633.13714     -94818.738      188.49091      191.12178      1094.8778    
     65700  -95390.736      635.4203      -94755.316      188.47824      191.10447      1095.29      
     65800  -95330.599      637.72992     -94692.869      188.46362      191.08541      1095.7023    
     65900  -95267.839      639.73586     -94628.103      188.44974      191.06735      1096.1145    
     66000  -95198.241      633.44141     -94564.8        188.43597      191.04983      1096.5267    
     66100  -95140.792      640.32483     -94500.467      188.42057      191.03119      1096.939     
     66200  -95068.304      632.30092     -94436.003      188.4069       191.01488      1097.3512    
     66300  -95003.291      630.95208     -94372.339      188.39129      190.99695      1097.7634    
     66400  -94943.445      636.95516     -94306.49       188.37651      190.98047      1098.1756    
     66500  -94881.715      639.27518     -94242.44       188.36161      190.9644       1098.5879    
     66600  -94809.704      632.67173     -94177.033      188.34504      190.94747      1099.0001    
     66700  -94753.415      642.5886      -94110.827      188.33044      190.93286      1099.4123    
     66800  -94685.185      639.03354     -94046.152      188.31339      190.91648      1099.8246    
     66900  -94615.832      635.41482     -93980.418      188.29704      190.90125      1100.2368    
     67000  -94555.163      640.08791     -93915.076      188.2816       190.88783      1100.649     
     67100  -94483.076      635.4856      -93847.59       188.2633       190.87194      1101.0612    
     67200  -94414.064      634.18747     -93779.876      188.24825      190.85967      1101.4735    
     67300  -94352.712      639.59628     -93713.116      188.22991      190.84461      1101.8857    
     67400  -94280.599      634.96159     -93645.638      188.21317      190.83146      1102.2979    
     67500  -94216.548      637.7477      -93578.801      188.19672      190.81903      1102.7102    
     67600  -94147.33       635.9126      -93511.418      188.17797      190.80471      1103.1224    
     67700  -94079.974      638.12782     -93441.847      188.16187      190.79335      1103.5346    
     67800  -94012.497      639.31287     -93373.184      188.14284      190.7791       1103.9468    
     67900  -93939.218      636.51083     -93302.707      188.12641      190.76756      1104.3591    
     68000  -93871.6        638.55299     -93233.047      188.10869      190.75452      1104.7713    
     68100  -93804.88       642.70569     -93162.175      188.09085      190.74133      1105.1835    
     68200  -93735.825      642.85834     -93092.966      188.07457      190.72933      1105.5958    
     68300  -93661.296      637.46493     -93023.832      188.05658      190.71568      1106.008     
     68400  -93591.687      639.04789     -92952.639      188.03984      190.70321      1106.4202    
     68500  -93521.746      640.33014     -92881.416      188.02292      190.69029      1106.8324    
     68600  -93451.912      640.76325     -92811.149      188.00584      190.67689      1107.2447    
     68700  -93382.46       642.31574     -92740.144      187.98992      190.66425      1107.6569    
     68800  -93308.657      639.87834     -92668.778      187.97297      190.65005      1108.0691    
     68900  -93238.723      642.57367     -92596.15       187.95735      190.63664      1108.4813    
     69000  -93164.269      638.64247     -92525.626      187.94232      190.62303      1108.8936    
     69100  -93092.757      640.01016     -92452.747      187.92669      190.60829      1109.3058    
     69200  -93017.301      637.71539     -92379.585      187.91267      190.59462      1109.718     
     69300  -92943.523      636.14133     -92307.381      187.89758      190.57924      1110.1303    
     69400  -92874.11       641.4396      -92232.67       187.88388      190.5649       1110.5425    
     69500  -92798.443      641.60136     -92156.842      187.87038      190.55025      1110.9547    
     69600  -92723.754      643.34026     -92080.413      187.85583      190.53401      1111.3669    
     69700  -92651.187      647.0214      -92004.166      187.84439      190.52046      1111.7792    
     69800  -92571.329      642.82828     -91928.501      187.82999      190.50307      1112.1914    
     69900  -92497.094      644.63972     -91852.454      187.81854      190.48849      1112.6036    
     70000  -92423.632      644.59109     -91779.041      187.80603      190.47268      1113.0159    
     70100  -92343.12       639.79036     -91703.33       187.79308      190.45599      1113.4281    
     70200  -92279.957      650.54583     -91629.411      187.78211      190.44127      1113.8403    
     70300  -92189.169      638.20247     -91550.967      187.76895      190.42386      1114.2525    
     70400  -92117.147      641.31728     -91475.829      187.7581       190.40854      1114.6648    
     70500  -92037.122      640.61369     -91396.508      187.7459       190.39173      1115.077     
     70600  -91962.279      642.88397     -91319.395      187.73412      190.37544      1115.4892    
     70700  -91887.672      645.65888     -91242.013      187.72308      190.36011      1115.9015    
     70800  -91810.846      644.80333     -91166.042      187.71033      190.34322      1116.3137    
     70900  -91730.188      643.50595     -91086.682      187.69938      190.32821      1116.7259    
     71000  -91657.264      649.21849     -91008.046      187.68706      190.31193      1117.1381    
     71100  -91577.372      647.81681     -90929.555      187.67558      190.2966       1117.5504    
     71200  -91500.302      650.2788      -90850.023      187.66396      190.28131      1117.9626    
     71300  -91419.396      649.99294     -90769.403      187.65143      190.26532      1118.3748    
     71400  -91348.345      658.61999     -90689.725      187.64008      190.25094      1118.7871    
     71500  -91258.678      649.55555     -90609.122      187.6275       190.2359       1119.1993    
     71600  -91181.513      655.13344     -90526.38       187.61519      190.22152      1119.6115    
     71700  -91095.108      649.88362     -90445.224      187.6031       190.20758      1120.0237    
     71800  -91019.37       656.5337      -90362.836      187.58995      190.19308      1120.436     
     71900  -90944.774      662.6651      -90282.109      187.57762      190.17959      1120.8482    
     72000  -90853.721      654.35097     -90199.37       187.56468      190.16569      1121.2604    
     72100  -90767.552      653.36862     -90114.183      187.55143      190.15198      1121.6726    
     72200  -90693.266      664.38848     -90028.877      187.53887      190.13934      1122.0849    
     72300  -90605.828      657.95996     -89947.868      187.52517      190.12611      1122.4971    
     72400  -90528.409      660.11711     -89868.292      187.51184      190.11364      1122.9093    
     72500  -90445.197      660.30677     -89784.891      187.49847      190.10137      1123.3216    
     72600  -90356.24       658.3173      -89697.923      187.4845       190.08868      1123.7338    
[...]
    131600  -120005.91      639.74645     -119366.16      187.78677      190.56797      1366.9484    
    131700  -120008.01      630.46305     -119377.54      187.7967       190.56557      1367.3606    
    131800  -120014.24      629.0612      -119385.17      187.80551      190.56167      1367.7728    
    131900  -120001.43      623.07496     -119378.35      187.8158       190.55709      1368.185     
    132000  -120000.3       638.29244     -119362         187.82919      190.55224      1368.5973    
    132100  -119993.83      638.74827     -119355.09      187.84064      190.5442       1369.0095    
    132200  -120009.86      642.52559     -119367.34      187.85478      190.53807      1369.4217    
    132300  -120023.77      632.03185     -119391.74      187.86797      190.53171      1369.834     
    132400  -120024.83      617.44094     -119407.39      187.88108      190.52557      1370.2462    
    132500  -120032.58      629.24078     -119403.34      187.89445      190.52192      1370.6584    
    132600  -120022.26      635.13645     -119387.12      187.90414      190.51616      1371.0706    
    132700  -120018.12      642.96537     -119375.16      187.91509      190.51382      1371.4829    
    132800  -120014.21      638.16903     -119376.04      187.92206      190.51028      1371.8951    
    132900  -120013.56      628.4518      -119385.11      187.93049      190.5112       1372.3073    
    133000  -120015.41      624.50221     -119390.91      187.93736      190.51345      1372.7196    
    133100  -120024.88      635.4286      -119389.45      187.94296      190.51592      1373.1318    
    133200  -120023.46      637.84759     -119385.61      187.94898      190.52126      1373.544     
    133300  -120024.91      637.40946     -119387.5       187.95046      190.52533      1373.9562    
    133400  -120025.77      631.98511     -119393.78      187.9544       190.53333      1374.3685    
    133500  -120029.36      631.9381      -119397.42      187.95545      190.54056      1374.7807    
    133600  -120026.13      630.31828     -119395.82      187.95688      190.54972      1375.1929    
    133700  -120026.81      635.72728     -119391.08      187.95869      190.5607       1375.6052    
    133800  -120019.52      632.77041     -119386.75      187.95877      190.56992      1376.0174    
    133900  -120008.67      626.3349      -119382.33      187.96186      190.58197      1376.4296    
    134000  -120008.81      633.31253     -119375.5       187.96153      190.58984      1376.8418    
    134100  -120001.04      632.87163     -119368.17      187.96661      190.60108      1377.2541    
    134200  -119993.24      633.44927     -119359.79      187.96923      190.60724      1377.6663    
    134300  -119984.43      634.60984     -119349.82      187.97553      190.61489      1378.0785    
    134400  -119975.55      634.18558     -119341.36      187.98467      190.62225      1378.4908    
    134500  -119978.35      636.40605     -119341.94      187.99238      190.62547      1378.903     
    134600  -119977.86      629.08774     -119348.77      188.00671      190.63211      1379.3152    
    134700  -119986.37      631.65548     -119354.71      188.01877      190.63193      1379.7274    
    134800  -119979.48      628.98167     -119350.5       188.03764      190.63467      1380.1397    
    134900  -119969.89      633.44867     -119336.44      188.0576       190.63321      1380.5519    
    135000  -119963.38      639.61124     -119323.77      188.08118      190.63052      1380.9641    
    135100  -119958.08      634.33179     -119323.75      188.10848      190.62807      1381.3763    
    135200  -119964.7       631.16835     -119333.53      188.13486      190.62149      1381.7886    
    135300  -119963.49      624.97807     -119338.51      188.16649      190.61759      1382.2008    
    135400  -119960.18      628.03312     -119332.15      188.19556      190.61067      1382.613     
    135500  -119956.24      635.72093     -119320.52      188.22726      190.6063       1383.0253    
    135600  -119956.3       638.17683     -119318.12      188.25757      190.60204      1383.4375    
    135700  -119958.7       629.75397     -119328.95      188.28717      190.59768      1383.8497    
    135800  -119972.27      629.47793     -119342.79      188.31843      190.59722      1384.2619    
    135900  -119974.83      625.45306     -119349.38      188.34588      190.59442      1384.6742    
    136000  -119968.01      625.83271     -119342.17      188.37674      190.59771      1385.0864    
    136100  -119960.66      632.52551     -119328.13      188.40282      190.59974      1385.4986    
    136200  -119963.84      643.66373     -119320.18      188.42934      190.6067       1385.9109    
    136300  -119958.04      632.95264     -119325.09      188.45222      190.61527      1386.3231    
    136400  -119967.14      629.26899     -119337.87      188.47486      190.62688      1386.7353    
    136500  -119972.58      627.58063     -119345         188.49768      190.64071      1387.1475    
    136600  -119970.13      628.89039     -119341.24      188.51712      190.65322      1387.5598    
    136700  -119967.36      636.02391     -119331.33      188.53952      190.67064      1387.972     
    136800  -119970.2       642.76484     -119327.44      188.55672      190.68444      1388.3842    
    136900  -119970.33      634.09521     -119336.24      188.57628      190.70105      1388.7965    
    137000  -119984.88      635.28711     -119349.59      188.59326      190.71582      1389.2087    
    137100  -119983.24      627.87208     -119355.37      188.60995      190.73032      1389.6209    
    137200  -119983.23      632.28802     -119350.94      188.62844      190.74447      1390.0331    
    137300  -119981.02      637.83678     -119343.18      188.64447      190.75553      1390.4454    
    137400  -119981.21      639.28067     -119341.93      188.6627       190.76831      1390.8576    
    137500  -119982.61      634.95898     -119347.65      188.67859      190.77651      1391.2698    
    137600  -119977.83      623.75929     -119354.07      188.69762      190.78409      1391.6821    
    137700  -119981.88      627.62952     -119354.25      188.71783      190.78789      1392.0943    
    137800  -119975.53      630.92653     -119344.6       188.73713      190.78664      1392.5065    
    137900  -119959.5       629.55233     -119329.95      188.75965      190.78418      1392.9187    
    138000  -119955.61      635.62817     -119319.98      188.77898      190.77602      1393.331     
    138100  -119958.67      636.24959     -119322.42      188.80111      190.76711      1393.7432    
    138200  -119960.15      630.37713     -119329.77      188.82245      190.75315      1394.1554    
    138300  -119958.69      626.5386      -119332.16      188.84507      190.73785      1394.5676    
    138400  -119956.32      631.66944     -119324.66      188.86775      190.7199       1394.9799    
    138500  -119951.26      637.79109     -119313.47      188.88972      190.69891      1395.3921    
    138600  -119945.52      638.1724      -119307.34      188.91287      190.6764       1395.8043    
    138700  -119944.84      631.94879     -119312.89      188.93366      190.64962      1396.2166    
    138800  -119956.65      629.33574     -119327.31      188.95472      190.62285      1396.6288    
    138900  -119967.57      628.11063     -119339.46      188.97146      190.59424      1397.041     
    139000  -119967.1       626.96509     -119340.13      188.987        190.56615      1397.4532    
    139100  -119965.32      636.06138     -119329.26      188.99741      190.53755      1397.8655    
    139200  -119956.67      641.01454     -119315.65      189.00253      190.50824      1398.2777    
    139300  -119950.31      638.09753     -119312.21      189.00562      190.48229      1398.6899    
    139400  -119961.6       638.12438     -119323.48      189.00181      190.45564      1399.1022    
    139500  -119968.35      626.65751     -119341.69      188.99531      190.42938      1399.5144    
    139600  -119976.45      627.35131     -119349.1       188.98292      190.40479      1399.9266    
    139700  -119970.56      629.34059     -119341.22      188.96711      190.38279      1400.3388    
    139800  -119968.32      639.88672     -119328.44      188.94438      190.36173      1400.7511    
    139900  -119971.36      647.03722     -119324.32      188.91585      190.34144      1401.1633    
    140000  -119978.44      641.30591     -119337.13      188.88508      190.32536      1401.5755    
    140100  -119988.04      629.48766     -119358.55      188.84704      190.30844      1401.9878    
    140200  -119997.07      623.72591     -119373.34      188.80786      190.29439      1402.4       
    140300  -119997.08      624.89002     -119372.19      188.76422      190.27981      1402.8122    
    140400  -119997.16      634.9855      -119362.18      188.71929      190.26604      1403.2244    
    140500  -119994.87      638.9933      -119355.88      188.67172      190.25141      1403.6367    
    140600  -119998.94      635.30435     -119363.63      188.62244      190.23433      1404.0489    
    140700  -120013.12      632.38084     -119380.74      188.57326      190.21683      1404.4611    
    140800  -120019.75      627.60564     -119392.15      188.52382      190.19654      1404.8733    
    140900  -120016.26      628.65919     -119387.6       188.47604      190.17645      1405.2856    
    141000  -120012.11      636.46814     -119375.64      188.43         190.1524       1405.6978    
    141100  -120009.24      637.78073     -119371.46      188.38605      190.12557      1406.11      
    141200  -120012.53      633.72262     -119378.81      188.34672      190.09769      1406.5223    
    141300  -120017.35      628.26381     -119389.08      188.30907      190.06407      1406.9345    
    141400  -120010.57      620.48987     -119390.08      188.27685      190.03082      1407.3467    
    141500  -120008.56      630.43851     -119378.12      188.24885      189.99505      1407.7589    
    141600  -120004.93      642.26888     -119362.66      188.22445      189.9584       1408.1712    
    141700  -119996.59      639.86316     -119356.73      188.20329      189.91987      1408.5834    
    141800  -119995.9       635.05939     -119360.84      188.18467      189.88199      1408.9956    
    141900  -119996.24      629.79321     -119366.44      188.16911      189.84539      1409.4079    
    142000  -119994.53      630.01945     -119364.51      188.15489      189.80844      1409.8201    
    142100  -119984.64      630.75842     -119353.88      188.14392      189.77454      1410.2323    
    142200  -119973.2       631.90693     -119341.29      188.13346      189.74046      1410.6445    
    142300  -119970.97      636.80966     -119334.16      188.12429      189.7084       1411.0568    
    142400  -119971.04      635.46088     -119335.57      188.11563      189.67825      1411.469     
    142500  -119968.06      625.90494     -119342.16      188.10621      189.64987      1411.8812    
    142600  -119972.66      629.00436     -119343.66      188.09642      189.62449      1412.2935    
    142700  -119969.37      632.88127     -119336.49      188.08581      189.60375      1412.7057    
    142800  -119957.83      633.77793     -119324.05      188.07322      189.58565      1413.1179    
    142900  -119956.34      641.07264     -119315.27      188.05784      189.5711       1413.5301    
    143000  -119951.85      637.72055     -119314.13      188.04158      189.56149      1413.9424    
    143100  -119951.93      633.49843     -119318.43      188.02311      189.55553      1414.3546    
    143200  -119951.21      628.57555     -119322.64      188.00257      189.55273      1414.7668    
    143300  -119951.72      629.85316     -119321.87      187.98112      189.55303      1415.1791    
    143400  -119949.05      630.47734     -119318.58      187.95753      189.5565       1415.5913    
    143500  -119953.2       635.2095      -119317.99      187.93399      189.56251      1416.0035    
    143600  -119959.35      637.77663     -119321.58      187.9078       189.57019      1416.4157    
    143700  -119963.27      632.33489     -119330.94      187.88289      189.58006      1416.828     
    143800  -119975.59      633.11845     -119342.47      187.85633      189.5902       1417.2402    
    143900  -119981.95      634.14661     -119347.81      187.83169      189.60176      1417.6524    
    144000  -119978.6       633.37228     -119345.22      187.80712      189.61246      1418.0646    
    144100  -119974.68      633.96933     -119340.71      187.78392      189.62213      1418.4769    
    144200  -119981.49      641.77425     -119339.72      187.76259      189.631        1418.8891    
    144300  -119979.65      633.95885     -119345.69      187.74355      189.63756      1419.3013    
    144400  -119987.87      632.02307     -119355.85      187.72584      189.64198      1419.7136    
    144500  -119990.11      629.6714      -119360.44      187.71018      189.6436       1420.1258    
    144600  -119979.17      624.64093     -119354.53      187.69794      189.6432       1420.538     
    144700  -119977.34      632.60523     -119344.74      187.68803      189.64097      1420.9502    
    144800  -119975.45      634.83103     -119340.62      187.68007      189.63511      1421.3625    
    144900  -119982.5       636.97485     -119345.52      187.6763       189.62923      1421.7747    
    145000  -119984.64      630.47241     -119354.16      187.67379      189.61889      1422.1869    
    145100  -119982.72      626.34422     -119356.37      187.67418      189.6067       1422.5992    
    145200  -119979.32      630.42387     -119348.9       187.67548      189.5929       1423.0114    
    145300  -119972.6       634.541       -119338.06      187.67901      189.57951      1423.4236    
    145400  -119981.65      644.77979     -119336.87      187.68341      189.56472      1423.8358    
    145500  -119984.98      637.22624     -119347.76      187.68736      189.5479       1424.2481    
    145600  -119989.59      625.63941     -119363.95      187.69416      189.53368      1424.6603    
    145700  -120003.53      631.00802     -119372.52      187.69876      189.51594      1425.0725    
    145800  -119997.68      628.64268     -119369.03      187.70528      189.50176      1425.4848    
    145900  -119991.42      631.33102     -119360.09      187.70832      189.48623      1425.897     
    146000  -119996.7       639.05879     -119357.64      187.71019      189.47342      1426.3092    
    146100  -119991.07      625.79408     -119365.28      187.71179      189.4627       1426.7214    
    146200  -120004.18      629.97571     -119374.2       187.70907      189.45259      1427.1337    
    146300  -120000.55      627.47109     -119373.08      187.70614      189.44668      1427.5459    
    146400  -119998.29      636.52041     -119361.77      187.70013      189.44154      1427.9581    
    146500  -119983.8       635.76294     -119348.03      187.69342      189.43969      1428.3704    
    146600  -119981.13      639.51465     -119341.62      187.68413      189.44071      1428.7826    
    146700  -119981.87      635.59744     -119346.28      187.67253      189.44453      1429.1948    
    146800  -119980.01      624.19594     -119355.81      187.66029      189.45138      1429.607     
    146900  -119984.76      627.39409     -119357.37      187.64384      189.45903      1430.0193    
    147000  -119974.11      625.30156     -119348.81      187.6273       189.46986      1430.4315    
    147100  -119977.15      640.32229     -119336.83      187.60827      189.48161      1430.8437    
    147200  -119974.87      640.70676     -119334.16      187.58914      189.49367      1431.2559    
    147300  -119983.95      639.04622     -119344.91      187.57082      189.50763      1431.6682    
    147400  -119987.07      623.90482     -119363.17      187.54997      189.52034      1432.0804    
    147500  -119996.24      623.61338     -119372.63      187.53066      189.5329       1432.4926    
    147600  -119990.49      623.4493      -119367.04      187.51191      189.54511      1432.9049    
    147700  -119992.84      638.46457     -119354.38      187.4932       189.55515      1433.3171    
    147800  -119985.03      635.89246     -119349.13      187.47623      189.56387      1433.7293    
    147900  -119994.29      636.75885     -119357.53      187.46042      189.56826      1434.1415    
    148000  -120003.14      630.88347     -119372.25      187.4489       189.57201      1434.5538    
    148100  -120004.51      623.52109     -119380.99      187.43661      189.56939      1434.966     
    148200  -119997.06      622.94035     -119374.12      187.42808      189.56543      1435.3782    
    148300  -120000.42      641.20902     -119359.21      187.42233      189.55817      1435.7905    
    148400  -119994.08      639.68718     -119354.39      187.41665      189.54596      1436.2027    
    148500  -120007.03      639.59302     -119367.44      187.41547      189.53422      1436.6149    
    148600  -120015.04      628.55919     -119386.48      187.41432      189.51636      1437.0271    
    148700  -120018.17      622.39148     -119395.78      187.41719      189.49807      1437.4394    
    148800  -120015.37      626.83006     -119388.54      187.42064      189.47626      1437.8516    
    148900  -120016.46      643.10747     -119373.35      187.42524      189.45278      1438.2638    
    149000  -120010.67      642.59584     -119368.07      187.4338       189.42987      1438.6761    
    149100  -120017.47      636.31269     -119381.16      187.4416       189.40301      1439.0883    
    149200  -120024.47      624.48215     -119399.99      187.45153      189.37839      1439.5005    
    149300  -120027.1       621.63176     -119405.47      187.46041      189.35325      1439.9127    
    149400  -120022.96      628.96227     -119393.99      187.47085      189.33031      1440.325     
    149500  -120012.96      637.08058     -119375.88      187.47939      189.3074       1440.7372    
    149600  -120010.33      642.89484     -119367.43      187.48743      189.287        1441.1494    
    149700  -120013.97      637.19911     -119376.77      187.49675      189.27097      1441.5616    
    149800  -120017.15      623.5164      -119393.63      187.50199      189.25439      1441.9739    
    149900  -120019.64      621.24047     -119398.39      187.50747      189.24225      1442.3861    
    150000  -120017.1       633.17492     -119383.92      187.51058      189.23247      1442.7983    
    150100  -120001.24      638.45218     -119362.79      187.51306      189.22629      1443.2106    
    150200  -119994.12      641.32896     -119352.79      187.5148       189.22377      1443.6228    
    150300  -119999.04      638.5636      -119360.47      187.51319      189.22365      1444.035     
    150400  -120001.11      624.05649     -119377.05      187.51166      189.22787      1444.4472    
    150500  -120004.8       624.71963     -119380.09      187.507        189.23392      1444.8595    
    150600  -119992.88      630.04432     -119362.83      187.50327      189.24309      1445.2717    
    150700  -119979.77      641.48269     -119338.29      187.4971       189.25332      1445.6839    
    150800  -119969.5       644.37387     -119325.13      187.49117      189.26552      1446.0962    
    150900  -119969.35      636.48586     -119332.86      187.48603      189.27941      1446.5084    
    151000  -119981.83      630.63957     -119351.19      187.48025      189.29162      1446.9206    
    151100  -119984.01      623.30867     -119360.7       187.47555      189.30432      1447.3328    
