LAMMPS (2 Aug 2023 - Update 3)
OMP_NUM_THREADS environment is not set. Defaulting to 1 thread. (src/comm.cpp:98)
  using 1 OpenMP thread(s) per MPI task
Reading data file ...
  orthogonal box = (-100 -100 -2.1416495) to (100 100 39.081159)
  4 by 4 by 1 MPI processor grid
  reading atoms ...
  1620 atoms
  read_data CPU = 0.007 seconds
Replication is creating a 1x1x19 = 19 times larger system...
  orthogonal box = (-100 -100 -2.1416495) to (100 100 781.09172)
  2 by 2 by 4 MPI processor grid
  30780 atoms
  replicate CPU = 0.002 seconds
System init for write_data ...
WARNING: Communication cutoff is 0.0. No ghost atoms will be generated. Atoms may get lost. (src/comm_brick.cpp:210)
Reading airebo potential file CH.airebo with DATE: 2011-10-25
Reading airebo potential file CH.airebo with DATE: 2011-10-25
Reading airebo potential file CH.airebo with DATE: 2011-10-25
Neighbor list info ...
  update: every = 1 steps, delay = 0 steps, check = yes
  max neighbors/atom: 2000, page size: 100000
  master list distance cutoff = 13.2
  ghost atom cutoff = 13.2
  binsize = 6.6, bins = 31 31 119
  6 neighbor lists, perpetual/occasional/extra = 6 0 0
  (1) pair airebo, perpetual, skip from (5)
      attributes: full, newton on, ghost
      pair build: skip/ghost
      stencil: none
      bin: none
  (2) pair airebo, perpetual, skip from (5)
      attributes: full, newton on, ghost
      pair build: skip/ghost
      stencil: none
      bin: none
  (3) pair airebo, perpetual, skip from (5)
      attributes: full, newton on, ghost
      pair build: skip/ghost
      stencil: none
      bin: none
  (4) pair lj/cut, perpetual, skip from (6)
      attributes: half, newton on, cut 13
      pair build: skip
      stencil: none
      bin: none
  (5) neighbor class addition, perpetual
      attributes: full, newton on, ghost
      pair build: full/bin/ghost
      stencil: full/ghost/bin/3d
      bin: standard
  (6) neighbor class addition, perpetual
      attributes: half, newton on, cut 13
      pair build: half/bin/atomonly/newton
      stencil: half/bin/3d
      bin: standard
Setting up sd style minimization ...
  Unit style    : metal
  Current step  : 0
Per MPI rank memory allocation (min/avg/max) = 17.99 | 18.76 | 19.9 Mbytes
   Step          Temp          E_pair         E_mol          TotEng         Press     
         0   0             -206145.16      0             -206145.16      3997.0868    
        24   0             -221112         0             -221112         81.021641    
Loop time of 1.56074 on 16 procs for 24 steps with 30780 atoms

97.2% CPU use with 16 MPI tasks x 1 OpenMP threads

Minimization stats:
  Stopping criterion = energy tolerance
  Energy initial, next-to-last, final = 
     -206145.163165617  -221094.539257594  -221112.001510968
  Force two-norm initial, final = 3640.8714 49.148887
  Force max component initial, final = 177.24911 2.7877205
  Final line search alpha, max atom move = 0.017949923 0.050039368
  Iterations, force evaluations = 24 43

MPI task timing breakdown:
Section |  min time  |  avg time  |  max time  |%varavg| %total
---------------------------------------------------------------
Pair    | 1.3635     | 1.4276     | 1.536      |   3.7 | 91.47
Neigh   | 0          | 0          | 0          |   0.0 |  0.00
Comm    | 0.014905   | 0.12095    | 0.18604    |  12.7 |  7.75
Output  | 0          | 0          | 0          |   0.0 |  0.00
Modify  | 0          | 0          | 0          |   0.0 |  0.00
Other   |            | 0.01224    |            |       |  0.78

Nlocal:        1923.75 ave        2008 max        1800 min
Histogram: 4 0 0 0 0 0 4 3 3 2
Nghost:        6815.25 ave        6955 max        6747 min
Histogram: 6 0 4 2 0 0 0 1 1 2
Neighs:              0 ave           0 max           0 min
Histogram: 16 0 0 0 0 0 0 0 0 0

Total # of neighbors = 0
Ave neighs/atom = 0
Neighbor list builds = 0
Dangerous builds = 0
Setting up Verlet run ...
  Unit style    : metal
  Current step  : 24
  Time step     : 0.001
Per MPI rank memory allocation (min/avg/max) = 19 | 19.57 | 20.53 Mbytes
   Step          Temp          E_pair         E_mol          TotEng         Press          Volume    
        24   300           -221112         0             -219918.45      121.71357      31329335     
Loop time of 1.42497e-05 on 16 procs for 0 steps with 30780 atoms

98.7% CPU use with 16 MPI tasks x 1 OpenMP threads

MPI task timing breakdown:
Section |  min time  |  avg time  |  max time  |%varavg| %total
---------------------------------------------------------------
Pair    | 0          | 0          | 0          |   0.0 |  0.00
Neigh   | 0          | 0          | 0          |   0.0 |  0.00
Comm    | 0          | 0          | 0          |   0.0 |  0.00
Output  | 0          | 0          | 0          |   0.0 |  0.00
Modify  | 0          | 0          | 0          |   0.0 |  0.00
Other   |            | 1.425e-05  |            |       |100.00

Nlocal:        1923.75 ave        2006 max        1827 min
Histogram: 4 0 0 0 0 4 2 2 2 2
Nghost:           6815 ave        6931 max        6743 min
Histogram: 4 1 2 3 1 1 0 2 0 2
Neighs:              0 ave           0 max           0 min
Histogram: 16 0 0 0 0 0 0 0 0 0

Total # of neighbors = 0
Ave neighs/atom = 0
Neighbor list builds = 0
Dangerous builds = 0
WARNING: Dump 2 includes no atom IDs and is not sorted by ID. This may complicate post-processing tasks or visualization (src/dump.cpp:221)
Setting up Verlet run ...
  Unit style    : metal
  Current step  : 0
  Time step     : 0.001
Per MPI rank memory allocation (min/avg/max) = 20.5 | 21.07 | 22.03 Mbytes
   Step         PotEng         KinEng         TotEng           Lx             Ly             Lz      
         0  -221112         1193.5494     -219918.45      200            200            783.23337    
       100  -220633.46      789.84497     -219843.61      199.98545      199.98684      783.62499    
       200  -220634.56      882.85734     -219751.7       199.91894      199.92143      784.0166     
       300  -220635.17      989.40575     -219645.76      200.00824      200.01213      784.40822    
       400  -220579.31      1042.2236     -219537.09      200.00965      200.01909      784.79984    
       500  -220476.27      1030.1707     -219446.1       199.92447      199.94         785.19145    
       600  -220529.87      1179.1185     -219350.76      199.97647      199.99924      785.58307    
       700  -220513.65      1249.1116     -219264.54      200.00421      200.03352      785.97469    
       800  -220458.05      1230.9277     -219227.12      199.94492      199.97817      786.3663     
       900  -220388.7       1194.442      -219194.26      199.95762      199.99971      786.75792    
      1000  -220376.42      1200.7251     -219175.69      199.96894      200.01045      787.14954    
      1100  -220425.55      1209.2024     -219216.35      199.97267      200.01089      787.54115    
      1200  -220429.08      1180.2479     -219248.83      199.94417      199.9878       787.93277    
      1300  -220412.57      1166.3156     -219246.26      199.96         200.00858      788.32439    
      1400  -220389.44      1181.5764     -219207.87      199.98306      200.02726      788.716      
      1500  -220375.72      1181.5309     -219194.19      199.94694      199.98812      789.10762    
      1600  -220397.72      1194.248      -219203.47      199.96287      200.01181      789.49924    
      1700  -220419.75      1200.6363     -219219.11      199.95567      200.00747      789.89085    
      1800  -220417.31      1185.3392     -219231.97      199.95034      200.00736      790.28247    
      1900  -220420.07      1197.8459     -219222.23      199.95081      200.02254      790.67409    
      2000  -220405.99      1198.7676     -219207.22      199.9341       200.00899      791.0657     
      2100  -220399.58      1196.5098     -219203.07      199.94205      200.01429      791.45732    
      2200  -220400.06      1195.163      -219204.9       199.94134      200.01508      791.84894    
      2300  -220417.87      1201.5994     -219216.27      199.93687      200.01081      792.24055    
      2400  -220419.1       1190.9897     -219228.11      199.93635      200.00852      792.63217    
      2500  -220425.62      1190.9581     -219234.67      199.9385       200.00772      793.02379    
      2600  -220416.37      1186.159      -219230.21      199.93793      200.00994      793.4154     
      2700  -220407.12      1189.0185     -219218.1       199.92943      200.00846      793.80702    
      2800  -220412.66      1203.1322     -219209.53      199.92344      200.01272      794.19864    
      2900  -220414.33      1205.1925     -219209.13      199.92216      200.01966      794.59025    
      3000  -220411.07      1193.7094     -219217.36      199.91625      200.01637      794.98187    
      3100  -220413.15      1191.7385     -219221.42      199.91173      200.00958      795.37349    
      3200  -220405.8       1188.3799     -219217.42      199.91511      200.00845      795.7651     
      3300  -220406.35      1200.4842     -219205.86      199.91757      200.00485      796.15672    
      3400  -220390.07      1194.6642     -219195.4       199.92034      199.99773      796.54834    
      3500  -220384.94      1194.9956     -219189.95      199.92218      199.99025      796.93995    
      3600  -220391.19      1198.6445     -219192.54      199.92309      199.9816       797.33157    
      3700  -220394.73      1192.8263     -219201.9       199.92753      199.97647      797.72319    
      3800  -220390.01      1184.9906     -219205.02      199.93055      199.9687       798.11481    
      3900  -220383.12      1185.7398     -219197.38      199.93062      199.95747      798.50642    
      4000  -220381.38      1197.2315     -219184.15      199.933        199.95034      798.89804    
      4100  -220372.43      1199.8873     -219172.54      199.93706      199.94655      799.28966    
      4200  -220354.85      1185.8077     -219169.04      199.93547      199.94326      799.68127    
      4300  -220358.68      1198.4915     -219160.19      199.93316      199.93695      800.07289    
      4400  -220347.84      1194.5695     -219153.27      199.9294       199.93098      800.46451    
      4500  -220339.22      1193.5646     -219145.66      199.92648      199.92945      800.85612    
      4600  -220319.88      1191.8427     -219128.04      199.92568      199.93006      801.24774    
      4700  -220299.06      1191.3321     -219107.73      199.919        199.9242       801.63936    
      4800  -220287.56      1200.6427     -219086.91      199.91629      199.91894      802.03097    
      4900  -220264.01      1193.9849     -219070.03      199.91462      199.9165       802.42259    
      5000  -220258.65      1190.8392     -219067.81      199.91152      199.91283      802.81421    
      5100  -220259.84      1186.2448     -219073.59      199.90547      199.91059      803.20582    
      5200  -220260.1       1190.1918     -219069.91      199.8981       199.90623      803.59744    
      5300  -220242.32      1190.2659     -219052.05      199.89348      199.9089       803.98906    
      5400  -220216.74      1188.9459     -219027.79      199.88575      199.9094       804.38067    
      5500  -220209.16      1201.8649     -219007.3       199.87914      199.90972      804.77229    
      5600  -220197.31      1198.2977     -218999.01      199.87713      199.90833      805.16391    
      5700  -220185.68      1188.3404     -218997.34      199.87121      199.90049      805.55552    
      5800  -220182.27      1192.2533     -218990.01      199.86632      199.89125      805.94714    
      5900  -220168.57      1189.8272     -218978.74      199.867        199.88543      806.33876    
      6000  -220159.99      1196.5455     -218963.45      199.86513      199.87515      806.73037    
      6100  -220144.69      1197.4885     -218947.2       199.86112      199.86318      807.12199    
      6200  -220129.6       1193.924      -218935.68      199.85965      199.85625      807.51361    
      6300  -220120.46      1190.1906     -218930.27      199.86057      199.85255      807.90522    
      6400  -220105.17      1185.0853     -218920.09      199.85916      199.84661      808.29684    
      6500  -220087.57      1185.7273     -218901.84      199.85453      199.83588      808.68846    
      6600  -220064.93      1189.4306     -218875.5       199.85308      199.82827      809.08007    
      6700  -220046.13      1196.5714     -218849.56      199.85103      199.82018      809.47169    
      6800  -220030.6       1199.6281     -218830.98      199.84939      199.81186      809.86331    
      6900  -220021.54      1199.4572     -218822.08      199.8479       199.80289      810.25492    
      7000  -220004.38      1187.604      -218816.77      199.84299      199.79547      810.64654    
      7100  -220000.64      1190.3425     -218810.3       199.83688      199.7884       811.03816    
      7200  -219988.48      1189.3373     -218799.14      199.83013      199.78246      811.42977    
      7300  -219974.69      1190.321      -218784.37      199.82544      199.7777       811.82139    
      7400  -219960.27      1198.1895     -218762.08      199.81789      199.77002      812.21301    
      7500  -219938.77      1196.0068     -218742.76      199.80989      199.76041      812.60462    
      7600  -219926.35      1202.1026     -218724.25      199.8057       199.75372      812.99624    
      7700  -219905.33      1194.9994     -218710.33      199.80048      199.74414      813.38786    
      7800  -219877.05      1180.6757     -218696.37      199.79346      199.73791      813.77947    
      7900  -219861.47      1185.414      -218676.06      199.78811      199.734        814.17109    
      8000  -219843.46      1191.5259     -218651.93      199.77921      199.72658      814.56271    
      8100  -219835.21      1199.3486     -218635.86      199.7734       199.71995      814.95432    
      8200  -219822.67      1196.787      -218625.89      199.77007      199.71013      815.34594    
      8300  -219800.98      1187.0343     -218613.94      199.76883      199.69514      815.73756    
      8400  -219782.38      1189.843      -218592.53      199.76915      199.68234      816.12917    
      8500  -219763.36      1196.2961     -218567.07      199.76629      199.66736      816.52079    
      8600  -219736.92      1193.193      -218543.73      199.76302      199.65399      816.91241    
      8700  -219721.78      1193.154      -218528.62      199.76056      199.64382      817.30402    
      8800  -219701.27      1186.1822     -218515.09      199.75974      199.63434      817.69564    
      8900  -219682.71      1194.9661     -218487.74      199.7556       199.6205       818.08726    
      9000  -219652.69      1193.8311     -218458.85      199.75058      199.60767      818.47887    
      9100  -219628.95      1192.9957     -218435.95      199.74731      199.59558      818.87049    
      9200  -219622.84      1200.3906     -218422.45      199.74052      199.5857       819.26211    
      9300  -219610.5       1196.9764     -218413.52      199.73192      199.57953      819.65372    
      9400  -219593.32      1188.5932     -218404.73      199.72133      199.57159      820.04534    
      9500  -219575.72      1190.1409     -218385.58      199.71151      199.56153      820.43696    
      9600  -219555.61      1198.0086     -218357.6       199.70037      199.54963      820.82857    
      9700  -219527.36      1198.194      -218329.16      199.69187      199.54309      821.22019    
      9800  -219521.49      1208.4364     -218313.06      199.68235      199.53948      821.61181    
      9900  -219495.61      1191.33       -218304.28      199.66917      199.53401      822.00342    
     10000  -219476.34      1189.2087     -218287.13      199.65694      199.52795      822.39504    
     10100  -219455.93      1194.5708     -218261.36      199.64701      199.51849      822.78666    
     10200  -219425.61      1193.7916     -218231.82      199.63793      199.50644      823.17827    
     10300  -219392.17      1193.2169     -218198.95      199.62931      199.49415      823.56989    
     10400  -219378.65      1210.0226     -218168.63      199.61995      199.48436      823.96151    
     10500  -219360.3       1196.5489     -218163.75      199.61072      199.4765       824.35312    
     10600  -219344.61      1197.7586     -218146.85      199.59757      199.46599      824.74474    
     10700  -219318.87      1192.4329     -218126.44      199.58819      199.45823      825.13636    
     10800  -219293.68      1196.3755     -218097.3       199.57808      199.45187      825.52797    
     10900  -219264.67      1193.7061     -218070.96      199.56263      199.44058      825.91959    
     11000  -219254.3       1194.2078     -218060.1       199.54772      199.43102      826.31121    
     11100  -219240.08      1196.7366     -218043.34      199.53205      199.42651      826.70282    
     11200  -219216.74      1194.3412     -218022.39      199.51488      199.41952      827.09444    
     11300  -219193.28      1192.0459     -218001.24      199.50155      199.41286      827.48606    
     11400  -219179.18      1191.0962     -217988.08      199.48594      199.40358      827.87767    
     11500  -219154.86      1183.3014     -217971.56      199.47248      199.39592      828.26929    
     11600  -219129.03      1191.2517     -217937.78      199.46019      199.38919      828.66091    
     11700  -219106.01      1205.6785     -217900.34      199.44181      199.37703      829.05252    
     11800  -219077.21      1195.3998     -217881.81      199.42805      199.36941      829.44414    
     11900  -219057.32      1193.1927     -217864.13      199.41632      199.36268      829.83576    
     12000  -219031.98      1191.8935     -217840.09      199.39867      199.34902      830.22737    
     12100  -219004.56      1195.213      -217809.34      199.38459      199.34054      830.61899    
     12200  -218974.28      1203.4572     -217770.82      199.37324      199.33644      831.01061    
     12300  -218947.31      1199.536      -217747.77      199.35908      199.32552      831.40222    
     12400  -218929.71      1196.8232     -217732.88      199.34561      199.31125      831.79384    
     12500  -218910.24      1196.647      -217713.59      199.33428      199.29873      832.18546    
     12600  -218873.17      1180.1569     -217693.01      199.32174      199.28747      832.57707    
     12700  -218860.34      1194.4848     -217665.85      199.30891      199.27873      832.96869    
     12800  -218838         1192.8879     -217645.11      199.29014      199.26523      833.36031    
     12900  -218811.42      1184.0589     -217627.36      199.27286      199.25138      833.75192    
     13000  -218788.14      1189.2325     -217598.91      199.26255      199.24061      834.14354    
     13100  -218752.37      1193.3427     -217559.03      199.24731      199.22284      834.53516    
     13200  -218726.63      1199.0021     -217527.63      199.23449      199.20858      834.92677    
     13300  -218701.73      1197.1218     -217504.61      199.2263       199.20032      835.31839    
     13400  -218672.27      1189.5934     -217482.68      199.21358      199.18847      835.71001    
     13500  -218640.43      1188.3675     -217452.06      199.20043      199.17296      836.10162    
     13600  -218611.72      1192.4267     -217419.29      199.18858      199.15856      836.49324    
     13700  -218586.22      1199.0572     -217387.16      199.17642      199.14535      836.88486    
     13800  -218558.96      1192.9579     -217366         199.16408      199.13274      837.27647    
     13900  -218541.19      1191.7245     -217349.47      199.15048      199.11886      837.66809    
     14000  -218499.48      1184.9487     -217314.53      199.13713      199.10324      838.05971    
     14100  -218489.47      1210.5845     -217278.89      199.12548      199.08753      838.45132    
     14200  -218453.18      1198.9122     -217254.27      199.11461      199.07186      838.84294    
     14300  -218427.69      1194.3455     -217233.34      199.10062      199.05302      839.23456    
     14400  -218399.95      1191.8301     -217208.12      199.08792      199.0373       839.62617    
     14500  -218370.96      1194.7602     -217176.2       199.07566      199.02271      840.01779    
     14600  -218348.19      1203.5915     -217144.6       199.06223      199.00457      840.40941    
     14700  -218304.63      1190.6898     -217113.94      199.04849      198.98828      840.80102    
     14800  -218288.99      1193.4844     -217095.5       199.03451      198.97296      841.19264    
     14900  -218250.18      1176.4638     -217073.72      199.01852      198.96094      841.58426    
     15000  -218221.51      1188.095      -217033.42      198.9991       198.95058      841.97587    
     15100  -218189.07      1195.1085     -216993.96      198.97903      198.94055      842.36749    
     15200  -218151.74      1191.9678     -216959.77      198.95923      198.92946      842.75911    
     15300  -218124.18      1193.659      -216930.52      198.94167      198.91832      843.15072    
     15400  -218100.55      1187.2249     -216913.32      198.92426      198.90389      843.54234    
     15500  -218076.88      1193.5944     -216883.28      198.90871      198.88943      843.93396    
     15600  -218036.41      1189.5217     -216846.89      198.89548      198.87684      844.32557    
     15700  -218009.14      1195.4287     -216813.71      198.88116      198.86324      844.71719    
     15800  -217972         1191.6711     -216780.33      198.86445      198.84958      845.10881    
     15900  -217943.53      1197.5592     -216745.97      198.84806      198.83664      845.50042    
     16000  -217910.23      1195.5507     -216714.68      198.83104      198.82302      845.89204    
     16100  -217889.35      1195.6344     -216693.71      198.81418      198.80904      846.28366    
     16200  -217858.79      1191.8523     -216666.94      198.79919      198.79357      846.67527    
     16300  -217819.13      1189.2033     -216629.92      198.78353      198.77873      847.06689    
     16400  -217787.19      1197.7381     -216589.45      198.76546      198.76256      847.45851    
     16500  -217747.38      1194.9004     -216552.48      198.74634      198.74628      847.85012    
     16600  -217724.1       1201.2312     -216522.87      198.72922      198.73269      848.24174    
     16700  -217694.07      1189.1363     -216504.93      198.7132       198.72025      848.63336    
     16800  -217652.27      1179.9277     -216472.34      198.69916      198.70494      849.02497    
     16900  -217623.55      1192.719      -216430.84      198.68518      198.68759      849.41659    
     17000  -217586.71      1192.4273     -216394.28      198.67122      198.67052      849.80821    
     17100  -217547.14      1189.4908     -216357.65      198.65814      198.65232      850.19982    
     17200  -217515.41      1201.9883     -216313.42      198.64627      198.63528      850.59144    
     17300  -217487.17      1199.7869     -216287.38      198.63258      198.61868      850.98306    
     17400  -217462.73      1197.197      -216265.53      198.616        198.59962      851.37467    
     17500  -217437.24      1199.4107     -216237.83      198.60101      198.58661      851.76629    
     17600  -217398.77      1194.2649     -216204.5       198.58442      198.57087      852.15791    
     17700  -217358.41      1198.3758     -216160.03      198.56645      198.55157      852.54952    
     17800  -217324.38      1204.9576     -216119.42      198.55163      198.53609      852.94114    
     17900  -217290.62      1192.0826     -216098.54      198.53642      198.51691      853.33276    
     18000  -217254.35      1181.4579     -216072.89      198.52485      198.50024      853.72437    
     18100  -217220.38      1188.0767     -216032.3       198.51501      198.48738      854.11599    
     18200  -217184.7       1196.6979     -215988.01      198.50255      198.46824      854.50761    
     18300  -217148.48      1199.0282     -215949.45      198.49252      198.44838      854.89922    
     18400  -217107.69      1191.225      -215916.46      198.48428      198.43105      855.29084    
     18500  -217083.81      1190.4803     -215893.33      198.47275      198.40965      855.68246    
     18600  -217058.31      1193.0272     -215865.29      198.46206      198.3909       856.07407    
     18700  -217006.18      1185.4178     -215820.77      198.45015      198.37396      856.46569    
     18800  -216974.05      1198.3051     -215775.74      198.43629      198.35426      856.85731    
     18900  -216935.11      1195.2644     -215739.85      198.42577      198.33781      857.24892    
     19000  -216903.82      1193.8295     -215709.99      198.41231      198.31874      857.64054    
     19100  -216877.01      1191.4674     -215685.54      198.39794      198.3          858.03216    
     19200  -216838.32      1186.4104     -215651.91      198.38297      198.28279      858.42377    
     19300  -216803.43      1192.5866     -215610.85      198.36766      198.26528      858.81539    
     19400  -216768.95      1195.7912     -215573.16      198.35446      198.25039      859.20701    
     19500  -216727.57      1192.4381     -215535.13      198.33827      198.23515      859.59862    
     19600  -216700.77      1199.265      -215501.5       198.32376      198.22071      859.99024    
     19700  -216667.99      1193.2083     -215474.78      198.31327      198.20808      860.38186    
     19800  -216630.18      1184.9553     -215445.22      198.301        198.19108      860.77347    
     19900  -216588.67      1186.6689     -215402.01      198.28832      198.17258      861.16509    
     20000  -216542.96      1194.3855     -215348.58      198.2771       198.15671      861.55671    
     20100  -216511.25      1198.7784     -215312.48      198.26249      198.13853      861.94832    
     20200  -216477.61      1195.3741     -215282.24      198.25009      198.12141      862.33994    
     20300  -216446.37      1193.6866     -215252.68      198.23775      198.10462      862.73156    
     20400  -216398         1179.51       -215218.49      198.22622      198.08609      863.12317    
     20500  -216359.11      1188.9321     -215170.18      198.21874      198.07007      863.51479    
     20600  -216321.13      1200.3214     -215120.81      198.20986      198.05275      863.90641    
     20700  -216282.54      1193.2348     -215089.3       198.1979       198.03305      864.29802    
     20800  -216252.39      1190.2202     -215062.17      198.18695      198.0141       864.68964    
     20900  -216214.87      1186.9286     -215027.94      198.17673      197.99604      865.08126    
     21000  -216171.73      1188.746      -214982.98      198.16629      197.97592      865.47287    
     21100  -216128.06      1192.9194     -214935.15      198.15793      197.95825      865.86449    
     21200  -216093.24      1195.5268     -214897.72      198.14706      197.94285      866.25611    
     21300  -216054.95      1191.4916     -214863.45      198.13336      197.9262       866.64773    
     21400  -216017.45      1186.7136     -214830.74      198.12422      197.91359      867.03934    
     21500  -215992.67      1195.9225     -214796.75      198.11302      197.89667      867.43096    
     21600  -215941.71      1180.211      -214761.5       198.10133      197.87726      867.82258    
     21700  -215904.05      1194.6093     -214709.44      198.09328      197.86297      868.21419    
     21800  -215859.44      1199.3202     -214660.12      198.08045      197.84364      868.60581    
     21900  -215815.78      1201.6009     -214614.18      198.07097      197.82701      868.99743    
     22000  -215774.16      1197.5868     -214576.57      198.06281      197.81024      869.38904    
     22100  -215731.47      1182.5829     -214548.88      198.0516       197.79042      869.78066    
     22200  -215704.33      1190.4351     -214513.9       198.04512      197.7775       870.17228    
     22300  -215651.85      1186.197      -214465.65      198.03708      197.76407      870.56389    
     22400  -215612.71      1193.7005     -214419.01      198.02613      197.74686      870.95551    
     22500  -215562.9       1191.6109     -214371.29      198.01934      197.73318      871.34713    
     22600  -215512.11      1182.6648     -214329.45      198.00889      197.71737      871.73874    
     22700  -215492.32      1193.759      -214298.56      197.99666      197.70025      872.13036    
     22800  -215446.82      1180.06       -214266.76      197.98616      197.68577      872.52198    
     22900  -215406.95      1188.3783     -214218.57      197.97131      197.67042      872.91359    
     23000  -215368.75      1196.6876     -214172.06      197.95914      197.6594       873.30521    
     23100  -215321.81      1194.9885     -214126.82      197.94588      197.64729      873.69683    
     23200  -215282.99      1199.706      -214083.28      197.92894      197.6307       874.08844    
     23300  -215243.53      1186.851      -214056.68      197.91939      197.61828      874.48006    
     23400  -215208.85      1189.159      -214019.7       197.91059      197.60392      874.87168    
     23500  -215158.48      1188.4916     -213969.98      197.90191      197.58731      875.26329    
     23600  -215116.8       1195.5186     -213921.29      197.89934      197.5729       875.65491    
     23700  -215079.05      1197.4239     -213881.63      197.89143      197.55533      876.04653    
     23800  -215047.34      1194.1807     -213853.16      197.88216      197.53958      876.43814    
     23900  -214994.76      1179.5858     -213815.18      197.87224      197.52464      876.82976    
     24000  -214953.54      1186.1235     -213767.41      197.85651      197.50799      877.22138    
     24100  -214913.3       1197.2596     -213716.04      197.84232      197.49619      877.61299    
     24200  -214870.5       1198.7506     -213671.75      197.83054      197.4882       878.00461    
     24300  -214838.8       1202.4898     -213636.31      197.81476      197.47736      878.39623    
     24400  -214793.43      1185.564      -213607.87      197.80107      197.47089      878.78784    
     24500  -214756.02      1190.9383     -213565.08      197.78548      197.46382      879.17946    
     24600  -214709.13      1192.3762     -213516.75      197.76825      197.45218      879.57108    
     24700  -214663.96      1194.7838     -213469.17      197.75368      197.44044      879.96269    
     24800  -214623.98      1197.7235     -213426.26      197.73837      197.4252       880.35431    
     24900  -214573.79      1186.7718     -213387.02      197.72657      197.41101      880.74593    
     25000  -214533.35      1186.4055     -213346.94      197.71948      197.40009      881.13754    
     25100  -214489.08      1194.5099     -213294.57      197.71242      197.38906      881.52916    
     25200  -214437.65      1197.534      -213240.12      197.70552      197.37828      881.92078    
     25300  -214397.63      1202.812      -213194.82      197.69578      197.3677       882.31239    
     25400  -214352.85      1195.613      -213157.24      197.682        197.3568       882.70401    
     25500  -214314.49      1188.5637     -213125.93      197.66847      197.34996      883.09563    
     25600  -214270.84      1190.6959     -213080.15      197.65334      197.34068      883.48724    
     25700  -214228.96      1198.1362     -213030.82      197.63979      197.3331       883.87886    
     25800  -214185.22      1202.7776     -212982.44      197.6267       197.32612      884.27048    
     25900  -214134.41      1193.4085     -212941         197.61104      197.31545      884.66209    
     26000  -214098.6       1185.8698     -212912.73      197.5967       197.30951      885.05371    
     26100  -214059.36      1191.6168     -212867.75      197.57929      197.30264      885.44533    
     26200  -214009.55      1193.5354     -212816.02      197.56174      197.29481      885.83694    
     26300  -213966.74      1204.0041     -212762.74      197.54783      197.29032      886.22856    
     26400  -213914.74      1199.9097     -212714.83      197.53307      197.28069      886.62018    
     26500  -213880.25      1204.0559     -212676.2       197.52036      197.26806      887.01179    
     26600  -213829.7       1185.2884     -212644.41      197.50943      197.25807      887.40341    
     26700  -213782.43      1183.8158     -212598.61      197.49701      197.24698      887.79503    
     26800  -213734.12      1191.8077     -212542.32      197.48421      197.23996      888.18664    
     26900  -213682.59      1191.894      -212490.69      197.47119      197.23576      888.57826    
     27000  -213641.49      1195.7338     -212445.76      197.45581      197.22839      888.96988    
     27100  -213599.88      1189.6072     -212410.27      197.44122      197.22309      889.36149    
     27200  -213557.79      1182.3964     -212375.4       197.42552      197.21686      889.75311    
     27300  -213512.02      1189.0884     -212322.94      197.40743      197.20773      890.14473    
     27400  -213463.25      1194.6258     -212268.62      197.38911      197.20349      890.53634    
     27500  -213413.29      1194.3694     -212218.92      197.36785      197.19876      890.92796    
     27600  -213369.7       1200.0605     -212169.64      197.34531      197.19316      891.31958    
     27700  -213321.94      1202.2149     -212119.73      197.32552      197.19193      891.71119    
     27800  -213265.11      1194.8935     -212070.22      197.30512      197.18781      892.10281    
     27900  -213233.95      1202.186      -212031.76      197.28714      197.18427      892.49443    
     28000  -213184.11      1188.7376     -211995.37      197.27127      197.18169      892.88604    
     28100  -213145.67      1196.0357     -211949.63      197.25373      197.17484      893.27766    
     28200  -213095.1       1194.9145     -211900.19      197.23875      197.16971      893.66928    
     28300  -213041.55      1198.2081     -211843.35      197.2243       197.16658      894.06089    
     28400  -212990.83      1200.9929     -211789.84      197.2067       197.16219      894.45251    
     28500  -212946.88      1195.4486     -211751.43      197.19087      197.16168      894.84413    
     28600  -212908.56      1193.6264     -211714.93      197.17324      197.1597       895.23574    
     28700  -212853.07      1186.9087     -211666.16      197.15331      197.15485      895.62736    
     28800  -212801.57      1188.0954     -211613.48      197.13456      197.15178      896.01898    
     28900  -212757.15      1195.6283     -211561.52      197.11313      197.146        896.41059    
     29000  -212716.53      1205.2825     -211511.25      197.09113      197.14156      896.80221    
     29100  -212657.29      1187.4703     -211469.82      197.07047      197.14015      897.19383    
     29200  -212618.16      1186.2436     -211431.91      197.04839      197.13721      897.58544    
     29300  -212573.8       1189.6975     -211384.11      197.02953      197.1353       897.97706    
     29400  -212517.57      1190.6578     -211326.92      197.01399      197.13158      898.36868    
     29500  -212471.33      1199.6866     -211271.64      196.99969      197.12367      898.76029    
     29600  -212431.29      1199.584      -211231.71      196.98892      197.11783      899.15191    
     29700  -212384.92      1195.0331     -211189.89      196.97759      197.11341      899.54353    
     29800  -212339.26      1194.6827     -211144.58      196.96346      197.10784      899.93514    
     29900  -212297.61      1195.2177     -211102.39      196.94995      197.10267      900.32676    
     30000  -212256.66      1194.4765     -211062.18      196.93537      197.09945      900.71838    
     30100  -212198.17      1181.2988     -211016.88      196.91798      197.09389      901.10999    
     30200  -212149.93      1190.6551     -210959.28      196.90021      197.08835      901.50161    
     30300  -212101.45      1200.7658     -210900.68      196.88152      197.08255      901.89323    
     30400  -212047.17      1191.0722     -210856.1       196.86297      197.0717       902.28484    
     30500  -212021.27      1201.7612     -210819.51      196.84773      197.06215      902.67646    
     30600  -211970.45      1196.0092     -210774.44      196.83421      197.05324      903.06808    
     30700  -211922.36      1197.5623     -210724.8       196.82273      197.04313      903.45969    
     30800  -211866.69      1193.7705     -210672.92      196.81424      197.03435      903.85131    
     30900  -211814.82      1199.6674     -210615.16      196.80536      197.0191       904.24293    
     31000  -211751.9       1192.2028     -210559.7       196.80156      197.00545      904.63454    
     31100  -211701.08      1188.4519     -210512.62      196.79915      196.9928       905.02616    
     31200  -211667.27      1191.6912     -210475.58      196.79424      196.97734      905.41778    
     31300  -211616.97      1185.9648     -210431.01      196.79077      196.96857      905.80939    
     31400  -211567.01      1194.618      -210372.4       196.78436      196.95821      906.20101    
     31500  -211513.2       1197.3965     -210315.8       196.77597      196.94484      906.59263    
     31600  -211463.51      1199.7663     -210263.74      196.76775      196.93645      906.98424    
     31700  -211405.08      1190.7501     -210214.33      196.75484      196.92457      907.37586    
     31800  -211353.46      1192.3494     -210161.11      196.74145      196.91071      907.76748    
     31900  -211300.09      1197.5875     -210102.51      196.72926      196.89791      908.15909    
     32000  -211256.57      1205.4514     -210051.12      196.7161       196.88097      908.55071    
     32100  -211205         1191.0593     -210013.94      196.70688      196.86723      908.94233    
     32200  -211160.45      1190.1605     -209970.29      196.70143      196.85719      909.33394    
     32300  -211109.35      1192.6774     -209916.67      196.69836      196.84623      909.72556    
     32400  -211048.25      1191.207      -209857.04      196.69817      196.8343       910.11718    
     32500  -210993.65      1194.059      -209799.59      196.69789      196.81973      910.50879    
     32600  -210945.6       1197.8715     -209747.73      196.69664      196.80338      910.90041    
     32700  -210892.78      1195.2904     -209697.48      196.69471      196.78532      911.29203    
     32800  -210848.01      1198.6803     -209649.33      196.69156      196.76503      911.68364    
     32900  -210792.64      1191.7805     -209600.86      196.68927      196.7464       912.07526    
     33000  -210738.59      1195.9288     -209542.66      196.68597      196.72857      912.46688    
     33100  -210682.42      1200.8299     -209481.59      196.68163      196.71021      912.85849    
     33200  -210618.13      1191.2497     -209426.88      196.67788      196.69179      913.25011    
     33300  -210580.89      1198.5546     -209382.33      196.67268      196.6728       913.64173    
     33400  -210531.65      1188.0939     -209343.55      196.66782      196.65532      914.03334    
     33500  -210479.7       1191.53       -209288.17      196.66461      196.6379       914.42496    
     33600  -210422.19      1193.6955     -209228.49      196.66162      196.61932      914.81658    
     33700  -210369.23      1199.0426     -209170.19      196.6611       196.60222      915.20819    
     33800  -210307.85      1194.0177     -209113.83      196.66228      196.58512      915.59981    
     33900  -210258.64      1196.2113     -209062.42      196.66313      196.56558      915.99143    
     34000  -210210.31      1187.8187     -209022.49      196.66576      196.54683      916.38304    
     34100  -210157.2       1182.5936     -208974.61      196.66719      196.52686      916.77466    
     34200  -210105.57      1195.318      -208910.26      196.66588      196.50562      917.16628    
     34300  -210046.29      1193.2624     -208853.03      196.66379      196.4885       917.55789    
     34400  -209990.8       1192.9715     -208797.82      196.66062      196.47275      917.94951    
     34500  -209934.28      1196.1481     -208738.13      196.65478      196.45406      918.34113    
     34600  -209879.01      1199.5376     -208679.48      196.65039      196.43783      918.73274    
     34700  -209833.52      1194.1317     -208639.39      196.64392      196.41913      919.12436    
     34800  -209786.4       1189.1801     -208597.22      196.63752      196.39877      919.51598    
     34900  -209731.26      1190.0069     -208541.25      196.63253      196.38093      919.90759    
     35000  -209675.09      1196.8162     -208478.27      196.62656      196.36195      920.29921    
     35100  -209621.45      1200.9448     -208420.51      196.62177      196.34382      920.69083    
     35200  -209563.9       1195.0527     -208368.85      196.61732      196.32789      921.08244    
     35300  -209518.61      1194.9131     -208323.7       196.61178      196.31398      921.47406    
     35400  -209472.98      1186.041      -208286.94      196.60612      196.30361      921.86568    
     35500  -209412.92      1184.5306     -208228.39      196.60027      196.29408      922.25729    
     35600  -209346.3       1182.8384     -208163.46      196.59395      196.28263      922.64891    
     35700  -209296.1       1195.879      -208100.23      196.58818      196.27122      923.04053    
     35800  -209236.04      1196.2913     -208039.75      196.58106      196.25742      923.43214    
     35900  -209188.59      1205.7343     -207982.86      196.57352      196.24134      923.82376    
     36000  -209128.69      1190.6474     -207938.05      196.56624      196.2265       924.21538    
     36100  -209080.41      1184.0351     -207896.37      196.55584      196.2097       924.60699    
     36200  -209036.07      1195.8748     -207840.19      196.54426      196.19611      924.99861    
     36300  -208971.64      1191.9006     -207779.74      196.53228      196.18698      925.39023    
     36400  -208908.36      1188.4504     -207719.91      196.51862      196.17763      925.78184    
     36500  -208852.02      1192.2071     -207659.81      196.50571      196.17202      926.17346    
     36600  -208801.12      1198.1999     -207602.92      196.49281      196.16807      926.56508    
     36700  -208745.04      1194.8908     -207550.15      196.47951      196.16082      926.95669    
     36800  -208692         1180.4301     -207511.57      196.46838      196.15346      927.34831    
     36900  -208650.59      1188.9794     -207461.61      196.45716      196.14242      927.73993    
     37000  -208575.83      1180.6507     -207395.18      196.44682      196.12924      928.13154    
     37100  -208531.39      1197.8865     -207333.5       196.43821      196.11981      928.52316    
     37200  -208473.59      1197.4433     -207276.15      196.4268       196.11101      928.91478    
     37300  -208416.74      1195.8088     -207220.93      196.41331      196.10303      929.30639    
     37400  -208370.91      1203.5859     -207167.32      196.4001       196.09875      929.69801    
     37500  -208306.37      1187.1659     -207119.21      196.38373      196.09278      930.08963    
     37600  -208260.23      1185.4834     -207074.75      196.36659      196.08639      930.48124    
     37700  -208204.41      1185.6794     -207018.73      196.35135      196.08081      930.87286    
     37800  -208144.88      1193.9046     -206950.97      196.33524      196.07125      931.26448    
     37900  -208085.97      1191.8964     -206894.07      196.32067      196.06312      931.65609    
     38000  -208038.75      1195.4866     -206843.26      196.30783      196.05562      932.04771    
     38100  -207980.27      1183.1369     -206797.13      196.29433      196.04728      932.43933    
     38200  -207928.84      1180.7322     -206748.1       196.28183      196.0418       932.83094    
     38300  -207864.43      1185.1861     -206679.24      196.26877      196.03518      933.22256    
     38400  -207807.1       1191.9527     -206615.15      196.25461      196.02799      933.61418    
     38500  -207755.8       1192.8837     -206562.92      196.24126      196.02372      934.00579    
     38600  -207717.07      1198.5572     -206518.51      196.22735      196.01834      934.39741    
     38700  -207651.5       1183.4076     -206468.1       196.21289      196.0133       934.78903    
     38800  -207586.8       1182.2983     -206404.5       196.19804      196.00741      935.18064    
     38900  -207542.03      1197.8965     -206344.13      196.18266      195.99972      935.57226    
     39000  -207479.12      1190.9137     -206288.2       196.16707      195.99141      935.96388    
     39100  -207422.46      1189.9364     -206232.52      196.15192      195.98261      936.3555     
     39200  -207364.62      1187.3697     -206177.25      196.13822      195.97557      936.74711    
     39300  -207325.47      1202.8814     -206122.59      196.12328      195.96624      937.13873    
     39400  -207267.97      1193.6534     -206074.32      196.10929      195.95855      937.53035    
     39500  -207220.83      1194.1147     -206026.71      196.09653      195.95187      937.92196    
     39600  -207153.73      1182.3154     -205971.41      196.08242      195.94164      938.31358    
     39700  -207100.03      1199.6803     -205900.35      196.06974      195.93195      938.7052     
     39800  -207040.53      1198.4437     -205842.09      196.05816      195.92394      939.09681    
     39900  -206990.51      1194.4915     -205796.02      196.04551      195.91461      939.48843    
     40000  -206941.27      1193.7869     -205747.48      196.0334       195.90602      939.88005    
     40100  -206876.86      1188.6856     -205688.18      196.02242      195.89771      940.27166    
     40200  -206820.26      1195.1277     -205625.14      196.01013      195.8867       940.66328    
     40300  -206762         1194.1077     -205567.89      195.9973       195.87572      941.0549     
     40400  -206715.11      1199.95       -205515.16      195.985        195.86611      941.44651    
     40500  -206653.62      1192.3506     -205461.27      195.97272      195.85609      941.83813    
     40600  -206596.98      1189.3061     -205407.67      195.96034      195.84516      942.22975    
     40700  -206548.64      1195.187      -205353.45      195.94951      195.83481      942.62136    
     40800  -206494.6       1194.3963     -205300.21      195.94061      195.82396      943.01298    
     40900  -206441.17      1192.769      -205248.4       195.93239      195.81098      943.4046     
     41000  -206380.91      1187.5109     -205193.4       195.92512      195.79655      943.79621    
     41100  -206320.52      1193.3021     -205127.22      195.91818      195.78074      944.18783    
     41200  -206257.5       1195.2942     -205062.21      195.91228      195.76579      944.57945    
     41300  -206200.43      1194.8895     -205005.54      195.90502      195.74913      944.97106    
     41400  -206145.27      1189.6868     -204955.59      195.89758      195.7325       945.36268    
     41500  -206101.74      1187.8247     -204913.92      195.89034      195.71902      945.7543     
     41600  -206047.17      1187.4465     -204859.72      195.8808       195.70396      946.14591    
     41700  -205985.65      1188.8768     -204796.77      195.87229      195.69139      946.53753    
     41800  -205919.45      1188.3364     -204731.11      195.8647       195.67968      946.92915    
     41900  -205869.06      1202.4044     -204666.66      195.85642      195.66272      947.32076    
     42000  -205798.31      1187.5964     -204610.71      195.85202      195.6469       947.71238    
     42100  -205751.82      1191.0566     -204560.76      195.84739      195.62842      948.104      
     42200  -205699.75      1185.5273     -204514.22      195.84356      195.60876      948.49561    
     42300  -205643.24      1184.8329     -204458.41      195.84287      195.59147      948.88723    
     42400  -205567.69      1182.9587     -204384.73      195.8399       195.57029      949.27885    
     42500  -205515.29      1194.3572     -204320.93      195.83765      195.5517       949.67046    
     42600  -205453.54      1196.8611     -204256.68      195.83464      195.53604      950.06208    
     42700  -205401.46      1204.1307     -204197.33      195.8289       195.51785      950.4537     
     42800  -205335.93      1185.9395     -204149.99      195.82491      195.50165      950.84531    
     42900  -205295.46      1193.4555     -204102.01      195.81937      195.48378      951.23693    
     43000  -205231.84      1189.8304     -204042.01      195.81274      195.46424      951.62855    
     43100  -205168.27      1190.2103     -203978.06      195.80754      195.44654      952.02016    
     43200  -205113.95      1197.4132     -203916.54      195.79965      195.42602      952.41178    
     43300  -205054.68      1194.5737     -203860.11      195.79334      195.40641      952.8034     
     43400  -204999.22      1191.7075     -203807.51      195.78966      195.39         953.19501    
     43500  -204940.01      1182.6841     -203757.32      195.78278      195.37028      953.58663    
     43600  -204878.63      1176.877      -203701.76      195.77701      195.35487      953.97825    
     43700  -204825.61      1194.7241     -203630.88      195.76988      195.34157      954.36986    
     43800  -204768.39      1200.5416     -203567.85      195.76075      195.32595      954.76148    
     43900  -204700.67      1190.4864     -203510.19      195.75512      195.31304      955.1531     
     44000  -204644.52      1189.7414     -203454.78      195.75028      195.30008      955.54471    
     44100  -204592.27      1192.6162     -203399.66      195.7434       195.28184      955.93633    
     44200  -204542.73      1200.0066     -203342.73      195.73889      195.26614      956.32795    
     44300  -204477.87      1196.4213     -203281.45      195.73256      195.25186      956.71956    
     44400  -204409.77      1194.6539     -203215.12      195.72202      195.23618      957.11118    
     44500  -204358.58      1205.2758     -203153.3       195.71215      195.22448      957.5028     
     44600  -204301.42      1195.166      -203106.25      195.69986      195.21311      957.89441    
     44700  -204250.84      1192.4777     -203058.36      195.68634      195.20066      958.28603    
     44800  -204187.46      1191.7135     -202995.74      195.67445      195.19148      958.67765    
     44900  -204130.73      1200.3625     -202930.37      195.66006      195.17998      959.06926    
     45000  -204066.08      1197.7084     -202868.37      195.64696      195.16863      959.46088    
     45100  -204011.57      1197.6357     -202813.94      195.63622      195.15869      959.8525     
     45200  -203951.07      1191.8663     -202759.2       195.62387      195.14441      960.24411    
     45300  -203895.62      1193.8243     -202701.8       195.61377      195.13323      960.63573    
     45400  -203834.09      1194.9455     -202639.15      195.60416      195.12492      961.02735    
     45500  -203774.8       1199.7223     -202575.07      195.59157      195.11497      961.41896    
     45600  -203713.83      1197.1819     -202516.65      195.57838      195.10796      961.81058    
     45700  -203669.27      1198.4259     -202470.84      195.56375      195.10129      962.2022     
     45800  -203609.22      1190.2485     -202418.97      195.54717      195.09169      962.59381    
     45900  -203549.79      1188.7939     -202361         195.53217      195.08312      962.98543    
     46000  -203489.16      1194.283      -202294.88      195.51668      195.07297      963.37705    
     46100  -203427.94      1204.6985     -202223.24      195.50032      195.0617       963.76866    
     46200  -203372.18      1203.2455     -202168.94      195.48622      195.0536       964.16028    
     46300  -203311.48      1192.5632     -202118.92      195.46925      195.04393      964.5519     
     46400  -203260.35      1194.9771     -202065.38      195.45326      195.03747      964.94351    
     46500  -203203.59      1193.2818     -202010.31      195.4391       195.03344      965.33513    
     46600  -203149.19      1196.5965     -201952.6       195.42324      195.02595      965.72675    
     46700  -203077.52      1193.6934     -201883.83      195.41022      195.02021      966.11836    
     46800  -203016.06      1201.7494     -201814.31      195.39723      195.01287      966.50998    
     46900  -202957.71      1196.2249     -201761.49      195.38225      195.00224      966.9016     
     47000  -202907.83      1194.864      -201712.97      195.3689       194.99432      967.29321    
     47100  -202851.84      1193.5512     -201658.29      195.3545       194.98383      967.68483    
     47200  -202790.73      1191.6814     -201599.05      195.33758      194.9715       968.07645    
     47300  -202727.57      1189.3169     -201538.25      195.32219      194.9645       968.46806    
     47400  -202672.42      1192.6342     -201479.78      195.30433      194.9573       968.85968    
     47500  -202616.34      1185.6738     -201430.67      195.28549      194.95154      969.2513     
     47600  -202565.1       1188.3895     -201376.71      195.26892      194.94707      969.64291    
     47700  -202507.42      1190.9926     -201316.42      195.25249      194.93868      970.03453    
     47800  -202441.82      1195.0788     -201246.74      195.23746      194.93058      970.42615    
     47900  -202378.43      1198.5307     -201179.9       195.22536      194.92365      970.81776    
     48000  -202320.63      1193.3354     -201127.29      195.21254      194.91256      971.20938    
     48100  -202272.72      1189.8028     -201082.92      195.20015      194.90207      971.601      
     48200  -202207.18      1184.8831     -201022.3       195.189        194.89316      971.99261    
     48300  -202156.51      1197.8417     -200958.67      195.17524      194.88182      972.38423    
     48400  -202089.25      1194.5865     -200894.67      195.16205      194.87369      972.77585    
     48500  -202039.31      1197.2332     -200842.07      195.1486       194.86707      973.16746    
     48600  -201981.27      1187.7819     -200793.49      195.13301      194.85718      973.55908    
     48700  -201925.99      1192.8937     -200733.09      195.11898      194.84795      973.9507     
     48800  -201860.21      1193.2227     -200666.98      195.10622      194.8366       974.34231    
     48900  -201795.53      1194.6719     -200600.86      195.09319      194.82172      974.73393    
     49000  -201726.95      1200.1301     -200526.82      195.08274      194.8081       975.12555    
     49100  -201676.59      1205.051      -200471.54      195.0724       194.7937       975.51716    
     49200  -201618.06      1193.2164     -200424.84      195.0629       194.78035      975.90878    
     49300  -201567.06      1192.9835     -200374.08      195.05478      194.76934      976.3004     
     49400  -201510.47      1190.1734     -200320.3       195.04492      194.75723      976.69201    
     49500  -201455.23      1193.1246     -200262.11      195.03602      194.74705      977.08363    
     49600  -201394.2       1196.5285     -200197.67      195.02688      194.73657      977.47525    
     49700  -201324.39      1196.9371     -200127.45      195.01658      194.72445      977.86686    
     49800  -201269.63      1202.933      -200066.7       195.00729      194.71221      978.25848    
     49900  -201220         1197.7916     -200022.21      194.9975       194.69519      978.6501     
     50000  -201161.66      1194.7709     -199966.89      194.98863      194.67662      979.04171    
     50100  -201098.58      1192.282      -199906.3       194.98057      194.65852      979.43333    
     50200  -201039.51      1194.5569     -199844.96      194.97149      194.63943      979.82495    
     50300  -200983.03      1193.4718     -199789.56      194.96467      194.62436      980.21656    
     50400  -200924.56      1189.222      -199735.34      194.95917      194.6101       980.60818    
     50500  -200870.79      1196.4775     -199674.32      194.95276      194.59399      980.9998     
     50600  -200795.26      1193.8938     -199601.37      194.94789      194.57952      981.39141    
     50700  -200740.8       1205.3048     -199535.49      194.94329      194.56384      981.78303    
     50800  -200684.73      1202.2784     -199482.45      194.93858      194.54561      982.17465    
     50900  -200626.29      1198.7297     -199427.56      194.93544      194.5277       982.56626    
     51000  -200553.17      1185.7967     -199367.38      194.93122      194.5072       982.95788    
     51100  -200492.25      1189.2954     -199302.96      194.92622      194.48426      983.3495     
     51200  -200439.05      1204.0411     -199235.01      194.92185      194.46226      983.74111    
     51300  -200365.82      1199.1905     -199166.63      194.91637      194.44065      984.13273    
     51400  -200317.92      1206.3924     -199111.53      194.91089      194.42094      984.52435    
     51500  -200252.87      1188.6042     -199064.27      194.90556      194.4036       984.91596    
     51600  -200195.54      1187.4496     -199008.09      194.89946      194.38613      985.30758    
     51700  -200137.83      1191.8975     -198945.93      194.89361      194.37063      985.6992     
     51800  -200080.15      1199.504      -198880.65      194.88884      194.35618      986.09081    
     51900  -200010.3       1194.9435     -198815.35      194.88359      194.34019      986.48243    
     52000  -199947.18      1189.8411     -198757.34      194.87846      194.32482      986.87405    
     52100  -199902.36      1194.2758     -198708.08      194.87297      194.30861      987.26566    
     52200  -199839.08      1189.315      -198649.77      194.86596      194.2907       987.65728    
     52300  -199779.99      1194.253      -198585.74      194.85889      194.274        988.0489     
     52400  -199718.27      1198.6437     -198519.63      194.85136      194.25631      988.44051    
     52500  -199650.72      1200.0039     -198450.71      194.84277      194.2376       988.83213    
     52600  -199592.35      1198.9933     -198393.35      194.83433      194.22168      989.22375    
     52700  -199539.28      1195.0979     -198344.18      194.82474      194.20644      989.61536    
     52800  -199473.65      1187.4083     -198286.24      194.8145       194.19208      990.00698    
     52900  -199418.02      1192.0798     -198225.94      194.80461      194.18009      990.3986     
     53000  -199359.23      1192.2711     -198166.96      194.7937       194.16815      990.79021    
     53100  -199305.16      1190.5934     -198114.57      194.78327      194.15668      991.18183    
     53200  -199247.29      1189.0078     -198058.28      194.77317      194.14601      991.57345    
     53300  -199179.04      1188.1994     -197990.85      194.76292      194.13425      991.96506    
     53400  -199117.14      1201.8757     -197915.27      194.75299      194.12181      992.35668    
     53500  -199046.14      1192.7145     -197853.42      194.74209      194.10798      992.7483     
     53600  -198994.28      1196.1451     -197798.13      194.7306       194.09537      993.13991    
     53700  -198936.39      1192.8739     -197743.51      194.71929      194.08466      993.53153    
     53800  -198877.31      1192.9074     -197684.4       194.70588      194.07326      993.92315    
     53900  -198819.67      1193.8756     -197625.79      194.69311      194.06461      994.31476    
     54000  -198761.12      1189.5428     -197571.57      194.67957      194.05613      994.70638    
     54100  -198707.75      1186.1393     -197521.61      194.66423      194.04625      995.098      
     54200  -198638.59      1184.3037     -197454.28      194.65062      194.03866      995.48961    
     54300  -198567.48      1185.1015     -197382.38      194.63676      194.02959      995.88123    
     54400  -198516.49      1198.1623     -197318.33      194.62389      194.01969      996.27285    
     54500  -198458.03      1199.2312     -197258.8       194.61166      194.01132      996.66446    
     54600  -198395.01      1191.0117     -197204         194.59777      194.00186      997.05608    
     54700  -198333.66      1189.8744     -197143.78      194.58281      193.992        997.4477     
     54800  -198277.46      1197.3895     -197080.07      194.56807      193.98457      997.83931    
     54900  -198213.29      1194.6875     -197018.6       194.55215      193.97491      998.23093    
     55000  -198158.24      1196.1054     -196962.13      194.53712      193.96601      998.62255    
     55100  -198102.08      1190.94       -196911.14      194.52288      193.95979      999.01416    
     55200  -198048.63      1192.4344     -196856.2       194.50688      193.95102      999.40578    
     55300  -197980.76      1191.2845     -196789.48      194.49189      193.94216      999.7974     
     55400  -197916.8       1196.858      -196719.94      194.47739      193.93349      1000.189     
     55500  -197852.34      1197.1879     -196655.16      194.46317      193.92262      1000.5806    
     55600  -197803.63      1200.1233     -196603.5       194.45066      193.9117       1000.9722    
     55700  -197735.7       1189.2732     -196546.43      194.43784      193.90087      1001.3639    
     55800  -197682.6       1198.0783     -196484.52      194.42418      193.88987      1001.7555    
     55900  -197618.71      1194.6017     -196424.11      194.41068      193.88079      1002.1471    
     56000  -197559.35      1186.9762     -196372.37      194.39649      193.87263      1002.5387    
     56100  -197501.76      1188.5261     -196313.24      194.38211      193.86497      1002.9303    
     56200  -197435.43      1192.2439     -196243.18      194.3672       193.85746      1003.3219    
     56300  -197372.06      1197.0034     -196175.06      194.35119      193.84971      1003.7136    
     56400  -197320.61      1207.9335     -196112.68      194.33551      193.84247      1004.1052    
     56500  -197254.2       1200.2723     -196053.93      194.31962      193.83302      1004.4968    
     56600  -197184.77      1191.5917     -195993.17      194.30504      193.82161      1004.8884    
     56700  -197128.91      1195.2244     -195933.69      194.29241      193.80852      1005.28      
     56800  -197069.44      1193.2139     -195876.22      194.28077      193.79484      1005.6716    
     56900  -197013.65      1198.7433     -195814.9       194.27029      193.78199      1006.0633    
     57000  -196948.75      1197.4938     -195751.26      194.26031      193.76959      1006.4549    
     57100  -196879.97      1193.7608     -195686.2       194.25019      193.75816      1006.8465    
     57200  -196818.02      1194.9398     -195623.08      194.24072      193.7472       1007.2381    
     57300  -196760.99      1197.143      -195563.85      194.23018      193.73562      1007.6297    
     57400  -196699.28      1194.9757     -195504.3       194.21856      193.7264       1008.0213    
     57500  -196645.03      1201.7399     -195443.29      194.20598      193.71785      1008.413     
     57600  -196576.17      1193.326      -195382.84      194.19168      193.70661      1008.8046    
     57700  -196518.88      1197.1723     -195321.71      194.17901      193.69639      1009.1962    
     57800  -196453.8       1192.1783     -195261.62      194.16654      193.68222      1009.5878    
     57900  -196401.46      1201.6901     -195199.77      194.15482      193.66525      1009.9794    
     58000  -196337.42      1198.399      -195139.02      194.14499      193.64992      1010.371     
     58100  -196274.85      1196.7471     -195078.1       194.13497      193.63299      1010.7627    
     58200  -196201.69      1186.0719     -195015.62      194.12662      193.61729      1011.1543    
     58300  -196149.44      1196.5923     -194952.84      194.11938      193.6029       1011.5459    
     58400  -196087.55      1195.9498     -194891.6       194.11092      193.58818      1011.9375    
     58500  -196024.13      1194.6915     -194829.44      194.10351      193.57673      1012.3291    
     58600  -195963.21      1197.366      -194765.84      194.09595      193.56432      1012.7207    
     58700  -195898.58      1195.4124     -194703.16      194.08779      193.54961      1013.1124    
     58800  -195839.54      1199.0896     -194640.45      194.08097      193.53641      1013.504     
     58900  -195772.78      1194.4347     -194578.35      194.07309      193.51925      1013.8956    
     59000  -195712.1       1197.2331     -194514.86      194.06573      193.50095      1014.2872    
     59100  -195642.8       1191.3641     -194451.43      194.05884      193.48252      1014.6788    
     59200  -195589.64      1199.9027     -194389.74      194.05041      193.46202      1015.0704    
     59300  -195528.88      1201.6895     -194327.19      194.04257      193.44299      1015.4621    
     59400  -195456.67      1195.2972     -194261.37      194.03473      193.42515      1015.8537    
     59500  -195398.23      1199.4052     -194198.82      194.02652      193.40803      1016.2453    
     59600  -195332.88      1194.8087     -194138.07      194.02029      193.39371      1016.6369    
     59700  -195268.7       1196.1737     -194072.53      194.01448      193.37854      1017.0285    
     59800  -195198.79      1194.1363     -194004.66      194.00896      193.36218      1017.4201    
     59900  -195129.94      1192.1151     -193937.82      194.00495      193.34612      1017.8118    
     60000  -195071.23      1195.807      -193875.42      193.99933      193.32797      1018.2034    
     60100  -195006.81      1197.0516     -193809.76      193.99267      193.31         1018.595     
     60200  -194946.23      1199.6242     -193746.61      193.98554      193.29233      1018.9866    
     60300  -194882.88      1198.2967     -193684.58      193.97671      193.2737       1019.3782    
     60400  -194813.29      1193.8736     -193619.41      193.96734      193.25737      1019.7698    
     60500  -194753.7       1198.151      -193555.55      193.95599      193.24087      1020.1615    
     60600  -194690.92      1199.4273     -193491.5       193.94434      193.22525      1020.5531    
     60700  -194634.3       1205.7089     -193428.59      193.93407      193.21176      1020.9447    
     60800  -194560.98      1195.6437     -193365.34      193.9225       193.1964       1021.3363    
     60900  -194495.72      1195.6406     -193300.08      193.91371      193.1828       1021.7279    
     61000  -194430.13      1194.2801     -193235.85      193.90575      193.17014      1022.1195    
     61100  -194368.02      1197.2678     -193170.75      193.89586      193.15598      1022.5112    
     61200  -194299.9       1196.3185     -193103.58      193.88667      193.14422      1022.9028    
     61300  -194234.7       1195.4061     -193039.29      193.87669      193.13258      1023.2944    
     61400  -194170.15      1195.3557     -192974.8       193.86507      193.11836      1023.686     
     61500  -194100.22      1192.4543     -192907.76      193.8542       193.10585      1024.0776    
     61600  -194041.74      1199.298      -192842.45      193.84187      193.09171      1024.4692    
     61700  -193972.53      1195.3618     -192777.17      193.82905      193.07598      1024.8609    
     61800  -193908.88      1196.9494     -192711.93      193.81682      193.06223      1025.2525    
     61900  -193840.29      1193.7943     -192646.5       193.80437      193.04804      1025.6441    
     62000  -193772.47      1193.0511     -192579.42      193.79233      193.03482      1026.0357    
     62100  -193702.95      1192.5905     -192510.36      193.78142      193.02447      1026.4273    
     62200  -193633.03      1191.5303     -192441.5       193.7704       193.01339      1026.8189    
     62300  -193570.09      1196.1522     -192373.93      193.75882      193.00368      1027.2106    
     62400  -193510.55      1203.1339     -192307.42      193.74607      192.99504      1027.6022    
     62500  -193437.72      1196.3262     -192241.39      193.73187      192.98528      1027.9938    
     62600  -193374.89      1199.7465     -192175.14      193.7168       192.9757       1028.3854    
     62700  -193312.85      1204.0309     -192108.82      193.70154      192.96494      1028.777     
     62800  -193240.8       1197.855      -192042.94      193.68551      192.9522       1029.1686    
     62900  -193175.71      1198.5255     -191977.18      193.66936      192.93952      1029.5603    
     63000  -193106.48      1195.3108     -191911.17      193.65292      192.92644      1029.9519    
     63100  -193036.34      1194.6467     -191841.7       193.63768      192.91411      1030.3435    
     63200  -192973.63      1200.9805     -191772.65      193.6236       192.90212      1030.7351    
     63300  -192899.97      1195.7397     -191704.23      193.61039      192.89154      1031.1267    
     63400  -192834.86      1200.4638     -191634.39      193.59772      192.88233      1031.5183    
     63500  -192763.89      1197.9602     -191565.93      193.58461      192.87351      1031.91      
     63600  -192695.98      1200.1569     -191495.82      193.57095      192.86491      1032.3016    
     63700  -192628.14      1200.982      -191427.16      193.55695      192.85527      1032.6932    
     63800  -192556.32      1198.2807     -191358.04      193.54196      192.84398      1033.0848    
     63900  -192482.36      1194.9899     -191287.37      193.52695      192.83248      1033.4764    
     64000  -192420.2       1201.4077     -191218.79      193.51193      192.82089      1033.868     
     64100  -192350.64      1201.8056     -191148.83      193.49621      192.8093       1034.2597    
     64200  -192274.37      1196.3036     -191078.06      193.48205      192.79893      1034.6513    
     64300  -192210.33      1201.8226     -191008.51      193.4678       192.78641      1035.0429    
     64400  -192134.26      1198.2996     -190935.96      193.45397      192.77392      1035.4345    
     64500  -192062.76      1198.9078     -190863.85      193.44109      192.76233      1035.8261    
     64600  -191981.93      1189.1527     -190792.78      193.42747      192.75004      1036.2177    
     64700  -191917.67      1196.6894     -190720.98      193.41405      192.73946      1036.6094    
     64800  -191856.43      1205.9933     -190650.43      193.40046      192.7289       1037.001     
     64900  -191781.05      1202.2443     -190578.81      193.38655      192.71719      1037.3926    
     65000  -191695.31      1188.8939     -190506.42      193.37299      192.70546      1037.7842    
     65100  -191633.4       1199.1379     -190434.26      193.36001      192.69336      1038.1758    
     65200  -191555.72      1195.327      -190360.39      193.34761      192.68006      1038.5674    
     65300  -191489.65      1205.2215     -190284.43      193.33541      192.66608      1038.9591    
     65400  -191414.89      1203.9912     -190210.9       193.32365      192.6523       1039.3507    
     65500  -191338.52      1200.9651     -190137.56      193.31193      192.63761      1039.7423    
     65600  -191269.62      1205.6034     -190064.01      193.30038      192.62261      1040.1339    
     65700  -191183.58      1193.9565     -189989.62      193.28927      192.60884      1040.5255    
     65800  -191109.91      1196.0629     -189913.85      193.27769      192.59495      1040.9172    
     65900  -191038.58      1200.7774     -189837.8       193.2664       192.5811       1041.3088    
     66000  -190964.99      1202.7841     -189762.21      193.25522      192.56723      1041.7004    
     66100  -190885.71      1199.9849     -189685.73      193.24428      192.55325      1042.092     
     66200  -190805.93      1196.9775     -189608.96      193.2333       192.53748      1042.4836    
     66300  -190727.79      1194.8036     -189532.99      193.22359      192.52116      1042.8752    
     66400  -190656.14      1199.2119     -189456.92      193.21387      192.50378      1043.2669    
     66500  -190575.83      1196.1878     -189379.64      193.20458      192.48793      1043.6585    
     66600  -190497.25      1195.198      -189302.06      193.19493      192.47231      1044.0501    
     66700  -190424.87      1202.1182     -189222.75      193.18539      192.45629      1044.4417    
     66800  -190342.14      1198.6848     -189143.45      193.17621      192.44138      1044.8333    
     66900  -190262.74      1198.1706     -189064.57      193.16572      192.42363      1045.2249    
     67000  -190182.18      1199.5347     -188982.65      193.15669      192.4069       1045.6166    
     67100  -190106.5       1204.497      -188902.01      193.14772      192.38813      1046.0082    
     67200  -190017.64      1196.6507     -188820.99      193.1395       192.36934      1046.3998    
     67300  -189945.05      1203.1307     -188741.92      193.13231      192.35275      1046.7914    
     67400  -189861.14      1199.3356     -188661.8       193.12402      192.33517      1047.183     
     67500  -189779.19      1198.8769     -188580.31      193.11608      192.31982      1047.5746    
     67600  -189696.45      1197.8666     -188498.58      193.10588      192.3049       1047.9663    
     67700  -189615.82      1195.9701     -188419.85      193.09444      192.29017      1048.3579    
     67800  -189537.74      1198.8381     -188338.9       193.08359      192.27523      1048.7495    
     67900  -189458.97      1204.368      -188254.6       193.07256      192.25759      1049.1411    
     68000  -189382.43      1209.8001     -188172.63      193.06297      192.23957      1049.5327    
     68100  -189291.29      1203.5224     -188087.76      193.05398      192.22256      1049.9243    
     68200  -189211.07      1206.2527     -188004.82      193.04388      192.20473      1050.316     
     68300  -189125.53      1205.3352     -187920.2       193.03409      192.18925      1050.7076    
     68400  -189042.51      1205.7421     -187836.77      193.02307      192.17512      1051.0992    
     68500  -188953.67      1202.1778     -187751.49      193.01167      192.16173      1051.4908    
     68600  -188879.05      1210.3312     -187668.72      193.00097      192.14983      1051.8824    
     68700  -188786.05      1201.4998     -187584.55      192.9899       192.13628      1052.274     
     68800  -188708.71      1209.4887     -187499.22      192.97978      192.12176      1052.6657    
     68900  -188627.65      1214.5779     -187413.07      192.96981      192.10644      1053.0573    
     69000  -188525.75      1199.3369     -187326.42      192.95827      192.0886       1053.4489    
     69100  -188442.48      1202.6128     -187239.87      192.94632      192.0721       1053.8405    
     69200  -188353.53      1202.4051     -187151.12      192.93332      192.05672      1054.2321    
     69300  -188269.98      1207.7801     -187062.2       192.91972      192.04221      1054.6237    
     69400  -188188.15      1213.264      -186974.89      192.90747      192.03051      1055.0154    
     69500  -188092.88      1203.8288     -186889.05      192.89539      192.01876      1055.407     
     69600  -188004.32      1202.0129     -186802.31      192.88327      192.00602      1055.7986    
     69700  -187918.95      1203.9021     -186715.05      192.87167      191.99348      1056.1902    
     69800  -187832.03      1205.4683     -186626.56      192.85931      191.97902      1056.5818    
     69900  -187737.63      1200.998      -186536.63      192.84634      191.96345      1056.9734    
     70000  -187663.83      1214.3355     -186449.5       192.83402      191.95024      1057.3651    
     70100  -187569.15      1208.6981     -186360.45      192.81962      191.93639      1057.7567    
     70200  -187469.61      1201.0542     -186268.56      192.80472      191.92307      1058.1483    
     70300  -187388.27      1212.4805     -186175.79      192.79076      191.9118       1058.5399    
     70400  -187288.56      1207.0787     -186081.48      192.776        191.8985       1058.9315    
     70500  -187191.75      1203.2801     -185988.47      192.76358      191.88692      1059.3231    
     70600  -187105.83      1211.4703     -185894.36      192.75179      191.87552      1059.7148    
     70700  -187018.32      1216.2069     -185802.12      192.73954      191.86205      1060.1064    
     70800  -186925.2       1219.5266     -185705.67      192.72833      191.84948      1060.498     
     70900  -186825.29      1213.401      -185611.88      192.71547      191.83503      1060.8896    
     71000  -186734.59      1216.7541     -185517.83      192.7023       191.8208       1061.2812    
     71100  -186640.49      1218.4089     -185422.08      192.68905      191.8084       1061.6728    
     71200  -186550.1       1220.5097     -185329.59      192.67394      191.79555      1062.0645    
     71300  -186455.42      1218.7108     -185236.71      192.65899      191.78376      1062.4561    
     71400  -186365.98      1222.9202     -185143.06      192.64438      191.77162      1062.8477    
     71500  -186263.45      1220.5268     -185042.93      192.63063      191.75844      1063.2393    
     71600  -186171.16      1217.8945     -184953.26      192.61738      191.74487      1063.6309    
     71700  -186092.27      1233.7871     -184858.49      192.60412      191.73217      1064.0225    
     71800  -185972.26      1212.4835     -184759.78      192.59122      191.71985      1064.4142    
     71900  -185883.6       1224.6477     -184658.95      192.57767      191.70656      1064.8058    
     72000  -185784.88      1222.4832     -184562.4       192.56437      191.69431      1065.1974    
     72100  -185689.22      1229.396      -184459.82      192.55002      191.68034      1065.589     
     72200  -185596.51      1237.4264     -184359.08      192.53562      191.66624      1065.9806    
     72300  -185491.16      1229.5328     -184261.63      192.52236      191.654        1066.3722    
     72400  -185384.05      1223.9843     -184160.07      192.5086       191.64022      1066.7639    
     72500  -185289.87      1234.9562     -184054.92      192.49612      191.62769      1067.1555    
     72600  -185184.98      1233.0023     -183951.98      192.48395      191.61487      1067.5471    
     72700  -185078.82      1236.1833     -183842.63      192.47038      191.60008      1067.9387    
[...]
     81600  -215619.05      1348.6386     -214270.41      192.24062      192.23541      1102.7926    
     81700  -215915.29      1345.6256     -214569.67      192.24572      192.25166      1103.1842    
     81800  -216210.92      1344.0923     -214866.82      192.25051      192.26751      1103.5758    
     81900  -216506.01      1343.3283     -215162.68      192.25568      192.28342      1103.9674    
     82000  -216797.02      1339.981      -215457.04      192.26107      192.29869      1104.3591    
     82100  -217083.33      1334.0246     -215749.3       192.26639      192.31333      1104.7507    
     82200  -217359.34      1324.6855     -216034.65      192.27208      192.32843      1105.1423    
     82300  -217618.53      1309.4706     -216309.06      192.27774      192.3432       1105.5339    
     82400  -217870.77      1299.0956     -216571.68      192.28328      192.35812      1105.9255    
     82500  -218113.01      1289.534      -216823.48      192.28889      192.37366      1106.3171    
     82600  -218348.03      1281.8446     -217066.19      192.29375      192.38847      1106.7088    
     82700  -218575.15      1274.6022     -217300.54      192.29908      192.40337      1107.1004    
     82800  -218794.61      1267.6193     -217526.99      192.30526      192.41817      1107.492     
     82900  -219004.76      1259.553      -217745.21      192.31152      192.43221      1107.8836    
     83000  -219204.69      1250.9806     -217953.71      192.31823      192.44684      1108.2752    
     83100  -219399.65      1246.2684     -218153.38      192.32498      192.4618       1108.6668    
     83200  -219584.57      1239.1898     -218345.38      192.33163      192.47689      1109.0585    
     83300  -219759.8       1231.7358     -218528.07      192.33821      192.49269      1109.4501    
     83400  -219926.84      1226.2134     -218700.62      192.3445       192.50841      1109.8417    
     83500  -220084.71      1220.9244     -218863.78      192.3507       192.52386      1110.2333    
     83600  -220234.7       1216.6718     -219018.03      192.35777      192.53911      1110.6249    
     83700  -220374.14      1210.7353     -219163.41      192.36553      192.55377      1111.0165    
     83800  -220503.29      1205.2361     -219298.05      192.37363      192.56863      1111.4082    
     83900  -220623.42      1202.2287     -219421.19      192.38193      192.58401      1111.7998    
     84000  -220734.32      1199.4218     -219534.89      192.3901       192.59987      1112.1914    
     84100  -220831.41      1193.1573     -219638.25      192.39794      192.6161       1112.583     
     84200  -220916.57      1189.5356     -219727.03      192.40554      192.6328       1112.9746    
     84300  -220991.72      1190.5686     -219801.15      192.41395      192.65091      1113.3662    
     84400  -221053.81      1189.3789     -219864.43      192.42214      192.66883      1113.7579    
     84500  -221101.53      1184.9012     -219916.63      192.43036      192.68655      1114.1495    
     84600  -221139.25      1186.9984     -219952.26      192.4392       192.70504      1114.5411    
     84700  -221168.53      1192.4874     -219976.05      192.44768      192.72298      1114.9327    
     84800  -221185.47      1188.7102     -219996.76      192.45593      192.74043      1115.3243    
     84900  -221189.75      1182.1379     -220007.62      192.46419      192.75795      1115.7159    
     85000  -221184.95      1186.0177     -219998.93      192.47271      192.77418      1116.1076    
     85100  -221166.17      1189.8257     -219976.35      192.4817       192.78939      1116.4992    
     85200  -221135.76      1188.779      -219946.98      192.49096      192.80359      1116.8908    
     85300  -221092.34      1183.3284     -219909.01      192.49978      192.81661      1117.2824    
     85400  -221033.27      1179.12       -219854.15      192.50884      192.82966      1117.674     
     85500  -220960.2       1181.6536     -219778.55      192.5174       192.8416       1118.0656    
     85600  -220875.78      1185.181      -219690.6       192.52485      192.85099      1118.4573    
     85700  -220785.93      1186.4984     -219599.43      192.53389      192.85938      1118.8489    
     85800  -220699.47      1190.8569     -219508.61      192.54522      192.86603      1119.2405    
     85900  -220619.4       1194.9013     -219424.5       192.55893      192.86918      1119.6321    
     86000  -220554.72      1202.194      -219352.52      192.57185      192.86273      1120.0237    
     86100  -220518.01      1215.2968     -219302.71      192.58737      192.8529       1120.4153    
     86200  -220487         1196.8581     -219290.14      192.60147      192.83461      1120.807     
     86300  -220447.77      1168.0755     -219279.7       192.61661      192.81908      1121.1986    
     86400  -220440.48      1206.7525     -219233.73      192.63546      192.81401      1121.5902    
     86500  -220423.81      1217.172      -219206.64      192.65429      192.81654      1121.9818    
     86600  -220399.48      1180.7518     -219218.73      192.66879      192.82039      1122.3734    
     86700  -220380.99      1166.7174     -219214.28      192.67342      192.82221      1122.765     
     86800  -220347.09      1182.9732     -219164.11      192.67511      192.83223      1123.1567    
     86900  -220327.33      1225.454      -219101.87      192.67521      192.84841      1123.5483    
     87000  -220305.22      1211.8583     -219093.36      192.67953      192.87142      1123.9399    
     87100  -220288.04      1172.3121     -219115.73      192.68301      192.89572      1124.3315    
     87200  -220274.03      1176.2684     -219097.76      192.6841       192.91348      1124.7231    
     87300  -220256.4       1207.9065     -219048.5       192.69177      192.9322       1125.1147    
     87400  -220232.84      1210.4228     -219022.42      192.69938      192.95215      1125.5064    
     87500  -220214.3       1186.897      -219027.41      192.70445      192.97492      1125.898     
     87600  -220196.48      1174.9527     -219021.53      192.71176      192.9964       1126.2896    
     87700  -220190.85      1204.0928     -218986.76      192.71712      193.01566      1126.6812    
     87800  -220168.59      1204.4515     -218964.13      192.71927      193.03578      1127.0728    
     87900  -220148.06      1188.4546     -218959.61      192.72566      193.05867      1127.4644    
     88000  -220131.3       1185.9944     -218945.3       192.7339       193.08139      1127.8561    
     88100  -220101.66      1187.8812     -218913.78      192.74578      193.10379      1128.2477    
     88200  -220080.49      1205.5003     -218874.99      192.76012      193.12459      1128.6393    
     88300  -220063.64      1205.1158     -218858.53      192.7705       193.13512      1129.0309    
     88400  -220054.36      1189.2986     -218865.06      192.78692      193.15352      1129.4225    
     88500  -220064.61      1191.8355     -218872.77      192.802        193.17534      1129.8141    
     88600  -220060.25      1186.5086     -218873.74      192.81472      193.19909      1130.2058    
     88700  -220065.17      1198.3079     -218866.86      192.83025      193.22632      1130.5974    
     88800  -220063.72      1193.2155     -218870.5       192.84277      193.25398      1130.989     
     88900  -220053.56      1178.2211     -218875.34      192.85372      193.28663      1131.3806    
     89000  -220048.73      1188.7916     -218859.93      192.86517      193.31656      1131.7722    
     89100  -220036.58      1201.9573     -218834.63      192.87905      193.34161      1132.1638    
     89200  -220023.44      1201.4426     -218822         192.89534      193.37063      1132.5555    
     89300  -220015.88      1191.5169     -218824.36      192.90951      193.39612      1132.9471    
     89400  -220017.29      1190.8916     -218826.39      192.92856      193.42035      1133.3387    
     89500  -220026.21      1196.2669     -218829.94      192.94926      193.4495       1133.7303    
     89600  -220034.86      1189.7721     -218845.09      192.96721      193.47467      1134.1219    
     89700  -220033.89      1187.3995     -218846.5       192.98629      193.49867      1134.5135    
     89800  -220029.53      1199.0853     -218830.45      193.01029      193.52976      1134.9052    
     89900  -220014.34      1195.3716     -218818.97      193.03115      193.56024      1135.2968    
     90000  -219999.08      1189.1685     -218809.91      193.05182      193.58859      1135.6884    
     90100  -219992.03      1193.2093     -218798.82      193.07816      193.61756      1136.08      
     90200  -219990.05      1210.0307     -218780.02      193.10326      193.64645      1136.4716    
     90300  -219984.88      1193.4765     -218791.41      193.125        193.67798      1136.8632    
     90400  -219989.13      1176.9535     -218812.18      193.14671      193.70982      1137.2549    
     90500  -219985.93      1190.392      -218795.54      193.16688      193.73958      1137.6465    
     90600  -219982.93      1206.0505     -218776.88      193.18611      193.76965      1138.0381    
     90700  -219994.6       1207.4547     -218787.14      193.20906      193.79986      1138.4297    
     90800  -220012.58      1190.751      -218821.83      193.23206      193.82961      1138.8213    
     90900  -220005.82      1163.3792     -218842.44      193.25449      193.86022      1139.2129    
     91000  -219994.89      1183.6615     -218811.23      193.27743      193.89355      1139.6046    
     91100  -219975.44      1214.3437     -218761.1       193.299        193.92671      1139.9962    
     91200  -219981.5       1234.7986     -218746.7       193.32363      193.95993      1140.3878    
     91300  -219985.84      1185.1336     -218800.71      193.34442      193.99486      1140.7794    
     91400  -220005.32      1161.1343     -218844.18      193.361        194.02811      1141.171     
     91500  -220004.86      1174.1622     -218830.7       193.37646      194.06469      1141.5626    
     91600  -219997.57      1213.2509     -218784.32      193.39064      194.10312      1141.9543    
     91700  -219996.32      1223.8388     -218772.48      193.40455      194.14276      1142.3459    
     91800  -219989.88      1188.1016     -218801.78      193.41766      194.18428      1142.7375    
     91900  -220002.25      1177.3874     -218824.86      193.42948      194.22475      1143.1291    
     92000  -219997.02      1178.9791     -218818.04      193.44224      194.26257      1143.5207    
     92100  -219992.75      1200.2738     -218792.47      193.45086      194.30112      1143.9123    
     92200  -219981.27      1201.5975     -218779.67      193.45907      194.34484      1144.304     
     92300  -219989.24      1199.4783     -218789.76      193.46774      194.39007      1144.6956    
     92400  -219991.63      1179.032      -218812.59      193.47894      194.43777      1145.0872    
     92500  -219996.52      1182.4723     -218814.05      193.48916      194.48496      1145.4788    
     92600  -219983.57      1191.0567     -218792.52      193.5          194.52879      1145.8704    
     92700  -219982.33      1212.2631     -218770.07      193.51247      194.5745       1146.262     
     92800  -219985.9       1205.6153     -218780.28      193.52219      194.62103      1146.6537    
     92900  -219991.27      1180.0358     -218811.23      193.53215      194.66987      1147.0453    
     93000  -219992.43      1173.6247     -218818.81      193.54265      194.71703      1147.4369    
     93100  -219982.74      1189.7697     -218792.98      193.55324      194.76296      1147.8285    
     93200  -219981.33      1217.7838     -218763.55      193.56461      194.80957      1148.2201    
     93300  -219988.38      1211.9272     -218776.45      193.57843      194.86067      1148.6117    
     93400  -219990.67      1176.2079     -218814.47      193.58833      194.90787      1149.0034    
     93500  -220003.48      1174.994      -218828.49      193.60055      194.9522       1149.395     
     93600  -219999.7       1195.2444     -218804.46      193.6117       194.99606      1149.7866    
     93700  -219985.94      1211.4291     -218774.51      193.62122      195.03553      1150.1782    
     93800  -219984.71      1209.5116     -218775.2       193.63142      195.06651      1150.5698    
     93900  -219996.12      1186.7381     -218809.39      193.64167      195.09403      1150.9614    
     94000  -220003.77      1171.3359     -218832.43      193.64987      195.118        1151.3531    
     94100  -219994.81      1177.0984     -218817.71      193.66456      195.14253      1151.7447    
     94200  -219995.28      1212.7431     -218782.54      193.6794       195.16309      1152.1363    
     94300  -219997.74      1219.3773     -218778.37      193.69318      195.18503      1152.5279    
     94400  -220005.05      1189.6845     -218815.37      193.70691      195.2056       1152.9195    
     94500  -220015.54      1171.9146     -218843.63      193.72674      195.22361      1153.3111    
     94600  -220012.09      1183.6087     -218828.48      193.7538       195.24112      1153.7028    
     94700  -220012.24      1215.4982     -218796.74      193.77813      195.25774      1154.0944    
     94800  -219998.65      1213.2593     -218785.39      193.79845      195.27515      1154.486     
     94900  -220004.82      1181.0284     -218823.79      193.82094      195.29687      1154.8776    
     95000  -220012.11      1171.927      -218840.18      193.84123      195.32344      1155.2692    
     95100  -220001.16      1186.1046     -218815.06      193.85685      195.35281      1155.6608    
     95200  -219996.73      1198.0104     -218798.72      193.8702       195.37889      1156.0525    
     95300  -219986.63      1203.0296     -218783.6       193.88419      195.39994      1156.4441    
     95400  -219983.36      1193.982      -218789.38      193.89909      195.41914      1156.8357    
     95500  -219974.14      1180.6579     -218793.48      193.91602      195.43703      1157.2273    
     95600  -219978.02      1195.5945     -218782.42      193.932        195.44907      1157.6189    
     95700  -219968.13      1196.6986     -218771.43      193.9485       195.4583       1158.0105    
     95800  -219969.63      1197.6855     -218771.94      193.96441      195.47242      1158.4022    
     95900  -219966.67      1187.9607     -218778.71      193.98207      195.48779      1158.7938    
     96000  -219958         1186.5168     -218771.48      194.00134      195.49936      1159.1854    
     96100  -219951.41      1197.8146     -218753.59      194.02689      195.51006      1159.577     
     96200  -219938.89      1219.0805     -218719.81      194.05274      195.51713      1159.9686    
     96300  -219949.21      1196.7373     -218752.48      194.07763      195.52379      1160.3602    
     96400  -219957.78      1173.4693     -218784.31      194.10411      195.53369      1160.7519    
     96500  -219955.08      1176.1599     -218778.92      194.12885      195.5434       1161.1435    
     96600  -219943.69      1203.0434     -218740.65      194.14964      195.55183      1161.5351    
     96700  -219929.42      1214.3095     -218715.11      194.1693       195.55801      1161.9267    
     96800  -219928.9       1205.4205     -218723.48      194.19211      195.56526      1162.3183    
     96900  -219932.88      1185.2164     -218747.66      194.21135      195.57175      1162.7099    
     97000  -219942.76      1181.8751     -218760.89      194.23296      195.57912      1163.1016    
     97100  -219940.92      1189.373      -218751.54      194.25917      195.58935      1163.4932    
     97200  -219933.25      1200.9992     -218732.25      194.28496      195.59705      1163.8848    
     97300  -219931.5       1209.5147     -218721.99      194.31188      195.60454      1164.2764    
     97400  -219920.49      1192.9304     -218727.56      194.3353       195.60987      1164.668     
     97500  -219921.15      1183.8388     -218737.31      194.35943      195.61383      1165.0596    
     97600  -219926.83      1189.4041     -218737.42      194.38671      195.61932      1165.4513    
     97700  -219910.87      1186.2366     -218724.64      194.41435      195.62372      1165.8429    
     97800  -219909.62      1199.8917     -218709.73      194.4496       195.62904      1166.2345    
     97900  -219907.01      1203.2849     -218703.73      194.48622      195.63388      1166.6261    
     98000  -219911.34      1195.4592     -218715.88      194.52505      195.63835      1167.0177    
     98100  -219918.16      1185.4077     -218732.75      194.56857      195.64742      1167.4093    
     98200  -219919.92      1185.2209     -218734.7       194.6102       195.65417      1167.801     
     98300  -219911.28      1191.5249     -218719.75      194.65468      195.66183      1168.1926    
     98400  -219907.23      1203.4021     -218703.83      194.70405      195.67084      1168.5842    
     98500  -219900.57      1201.706      -218698.86      194.75315      195.67838      1168.9758    
     98600  -219897.42      1189.6065     -218707.81      194.80276      195.68947      1169.3674    
     98700  -219902.65      1185.8564     -218716.79      194.85146      195.70021      1169.759     
     98800  -219903         1184.2682     -218718.73      194.90193      195.7132       1170.1507    
     98900  -219894.77      1186.9309     -218707.84      194.95594      195.72749      1170.5423    
     99000  -219908.31      1209.0479     -218699.26      195.00853      195.74062      1170.9339    
     99100  -219899.98      1195.7605     -218704.22      195.06349      195.75581      1171.3255    
     99200  -219891.31      1180.031      -218711.28      195.11913      195.77357      1171.7171    
     99300  -219896.71      1190.0781     -218706.63      195.16943      195.79022      1172.1087    
     99400  -219904.38      1201.0368     -218703.34      195.21926      195.80597      1172.5004    
     99500  -219900.61      1187.3609     -218713.25      195.2677       195.81709      1172.892     
     99600  -219898.75      1180.2089     -218718.54      195.31665      195.82833      1173.2836    
     99700  -219898.15      1193.823      -218704.32      195.36653      195.841        1173.6752    
     99800  -219887.26      1201.4255     -218685.83      195.4166       195.85035      1174.0668    
     99900  -219885.31      1204.2942     -218681.01      195.4705       195.86023      1174.4584    
    100000  -219884.11      1187.3077     -218696.8       195.52173      195.87038      1174.8501    
Loop time of 27205 on 16 procs for 100000 steps with 30780 atoms

Performance: 0.318 ns/day, 75.569 hours/ns, 3.676 timesteps/s, 113.141 katom-step/s
48.5% CPU use with 16 MPI tasks x 1 OpenMP threads

MPI task timing breakdown:
Section |  min time  |  avg time  |  max time  |%varavg| %total
---------------------------------------------------------------
Pair    | 4476.5     | 5922       | 7703.8     |1459.9 | 21.77
Neigh   | 63.866     | 85.525     | 106.53     | 145.8 |  0.31
Comm    | 2935.2     | 4750.6     | 6241.6     |1637.2 | 17.46
Output  | 63.144     | 65.665     | 68.674     |  19.1 |  0.24
Modify  | 14389      | 14545      | 14861      |  93.1 | 53.46
Other   |            | 1837       |            |       |  6.75

Nlocal:        1923.75 ave        4509 max         353 min
Histogram: 4 4 0 1 1 1 1 2 1 1
Nghost:        4551.75 ave        8877 max        1388 min
Histogram: 4 0 2 2 0 3 2 2 0 1
Neighs:              0 ave           0 max           0 min
Histogram: 16 0 0 0 0 0 0 0 0 0

Total # of neighbors = 0
Ave neighs/atom = 0
Neighbor list builds = 1030
Dangerous builds = 0
Total wall time: 7:33:27
