LAMMPS (2 Aug 2023 - Update 3)
OMP_NUM_THREADS environment is not set. Defaulting to 1 thread. (src/comm.cpp:98)
  using 1 OpenMP thread(s) per MPI task
Reading data file ...
  orthogonal box = (-100 -100 -2.3312515) to (100 100 46.166171)
  4 by 4 by 1 MPI processor grid
  reading atoms ...
  1320 atoms
  read_data CPU = 0.540 seconds
360 atoms in group sr
Deleted 360 atoms, new total = 960
Replication is creating a 1x1x15 = 15 times larger system...
  orthogonal box = (-100 -100 -2.3312515) to (100 100 725.13009)
  2 by 2 by 4 MPI processor grid
  14400 atoms
  replicate CPU = 0.584 seconds
System init for write_data ...
WARNING: Communication cutoff is 0.0. No ghost atoms will be generated. Atoms may get lost. (src/comm_brick.cpp:210)
Reading airebo potential file CH.airebo with DATE: 2011-10-25
Reading airebo potential file CH.airebo with DATE: 2011-10-25
Reading airebo potential file CH.airebo with DATE: 2011-10-25
Neighbor list info ...
  update: every = 1 steps, delay = 0 steps, check = yes
  max neighbors/atom: 2000, page size: 100000
  master list distance cutoff = 13.2
  ghost atom cutoff = 13.2
  binsize = 6.6, bins = 31 31 111
  6 neighbor lists, perpetual/occasional/extra = 6 0 0
  (1) pair airebo, perpetual, skip from (5)
      attributes: full, newton on, ghost
      pair build: skip/ghost
      stencil: none
      bin: none
  (2) pair airebo, perpetual, skip from (5)
      attributes: full, newton on, ghost
      pair build: skip/ghost
      stencil: none
      bin: none
  (3) pair airebo, perpetual, skip from (5)
      attributes: full, newton on, ghost
      pair build: skip/ghost
      stencil: none
      bin: none
  (4) pair lj/cut, perpetual, skip from (6)
      attributes: half, newton on, cut 13
      pair build: skip
      stencil: none
      bin: none
  (5) neighbor class addition, perpetual
      attributes: full, newton on, ghost
      pair build: full/bin/ghost
      stencil: full/ghost/bin/3d
      bin: standard
  (6) neighbor class addition, perpetual
      attributes: half, newton on, cut 13
      pair build: half/bin/atomonly/newton
      stencil: half/bin/3d
      bin: standard
Setting up sd style minimization ...
  Unit style    : metal
  Current step  : 0
Per MPI rank memory allocation (min/avg/max) = 12.96 | 12.96 | 12.96 Mbytes
   Step          Temp          E_pair         E_mol          TotEng         Press     
         0   0             -106670.64      0             -106670.64     -25.745857    
         1   0             -106670.91      0             -106670.91     -25.739335    
Loop time of 0.953996 on 16 procs for 1 steps with 14400 atoms

45.3% CPU use with 16 MPI tasks x 1 OpenMP threads

Minimization stats:
  Stopping criterion = energy tolerance
  Energy initial, next-to-last, final = 
     -106670.641920435  -106670.641920435  -106670.906274319
  Force two-norm initial, final = 8.3887057 0.84514549
  Force max component initial, final = 0.069876905 0.0070494245
  Final line search alpha, max atom move = 1 0.0070494245
  Iterations, force evaluations = 1 2

MPI task timing breakdown:
Section |  min time  |  avg time  |  max time  |%varavg| %total
---------------------------------------------------------------
Pair    | 0.031582   | 0.047047   | 0.071351   |   7.3 |  4.93
Neigh   | 0          | 0          | 0          |   0.0 |  0.00
Comm    | 0.15536    | 0.21933    | 0.29207    |   7.6 | 22.99
Output  | 0          | 0          | 0          |   0.0 |  0.00
Modify  | 0          | 0          | 0          |   0.0 |  0.00
Other   |            | 0.6876     |            |       | 72.08

Nlocal:            900 ave         975 max         825 min
Histogram: 4 0 0 0 0 8 0 0 0 4
Nghost:           3204 ave        3279 max        3129 min
Histogram: 4 0 0 0 0 8 0 0 0 4
Neighs:              0 ave           0 max           0 min
Histogram: 16 0 0 0 0 0 0 0 0 0

Total # of neighbors = 0
Ave neighs/atom = 0
Neighbor list builds = 0
Dangerous builds = 0
Setting up Verlet run ...
  Unit style    : metal
  Current step  : 1
  Time step     : 0.001
Per MPI rank memory allocation (min/avg/max) = 13.58 | 13.58 | 13.58 Mbytes
   Step          Temp          E_pair         E_mol          TotEng         Press          Volume    
         1   300           -106670.91      0             -106112.54     -5.2434154      29098454     
Loop time of 0.0357497 on 16 procs for 0 steps with 14400 atoms

46.1% CPU use with 16 MPI tasks x 1 OpenMP threads

MPI task timing breakdown:
Section |  min time  |  avg time  |  max time  |%varavg| %total
---------------------------------------------------------------
Pair    | 0          | 0          | 0          |   0.0 |  0.00
Neigh   | 0          | 0          | 0          |   0.0 |  0.00
Comm    | 0          | 0          | 0          |   0.0 |  0.00
Output  | 0          | 0          | 0          |   0.0 |  0.00
Modify  | 0          | 0          | 0          |   0.0 |  0.00
Other   |            | 0.03575    |            |       |100.00

Nlocal:            900 ave         900 max         900 min
Histogram: 16 0 0 0 0 0 0 0 0 0
Nghost:           3204 ave        3204 max        3204 min
Histogram: 16 0 0 0 0 0 0 0 0 0
Neighs:              0 ave           0 max           0 min
Histogram: 16 0 0 0 0 0 0 0 0 0

Total # of neighbors = 0
Ave neighs/atom = 0
Neighbor list builds = 0
Dangerous builds = 0
WARNING: Dump 2 includes no atom IDs and is not sorted by ID. This may complicate post-processing tasks or visualization (src/dump.cpp:221)
Setting up Verlet run ...
  Unit style    : metal
  Current step  : 0
  Time step     : 0.001
Per MPI rank memory allocation (min/avg/max) = 15.08 | 15.08 | 15.08 Mbytes
   Step         PotEng         KinEng         TotEng           Lx             Ly             Lz      
         0  -106670.91      558.36505     -106112.54      200            200            727.46134    
       100  -106350.29      276.35796     -106073.93      199.9979       199.99928      727.82508    
       200  -106359.55      338.48143     -106021.07      199.99517      199.99813      728.18881    
       300  -106305.09      346.88609     -105958.2       199.99575      200.00048      728.55254    
       400  -106280.18      391.13868     -105889.04      199.99037      199.9976       728.91627    
       500  -106239.17      423.222       -105815.95      199.99081      200.0011       729.28       
       600  -106214.9       473.79297     -105741.11      199.98549      200.00012      729.64373    
       700  -106169.79      501.24768     -105668.54      199.9824       200.00222      730.00746    
       800  -106139.17      536.57118     -105602.6       199.97749      200.00325      730.37119    
       900  -106104.53      554.77189     -105549.76      199.9719       200.00514      730.73492    
      1000  -106096.66      578.59209     -105518.06      199.96682      200.00806      731.09865    
      1100  -106090.77      570.94046     -105519.83      199.9594       200.01025      731.46238    
      1200  -106107.35      561.86407     -105545.48      199.95227      200.01357      731.82611    
      1300  -106111.42      545.49039     -105565.93      199.94423      200.017        732.18984    
      1400  -106107.51      542.46344     -105565.04      199.93455      200.01981      732.55357    
      1500  -106090.3       548.57833     -105541.72      199.9257       200.02422      732.91731    
      1600  -106085.56      568.53164     -105517.03      199.91563      200.02814      733.28104    
      1700  -106079.93      569.07943     -105510.85      199.9059       200.03267      733.64477    
      1800  -106079.93      556.8924      -105523.04      199.89439      200.03547      734.0085     
      1900  -106095.43      558.12094     -105537.3       199.8845       200.04014      734.37223    
      2000  -106090.87      551.71254     -105539.16      199.87326      200.04353      734.73596    
      2100  -106078.14      554.8318      -105523.31      199.86135      200.0458       735.09969    
      2200  -106065.61      564.42911     -105501.19      199.852        200.05046      735.46342    
      2300  -106057.42      569.1867      -105488.23      199.83949      200.05091      735.82715    
      2400  -106051.15      558.83345     -105492.32      199.8306       200.05446      736.19088    
      2500  -106054.23      550.45756     -105503.77      199.81883      200.0539       736.55461    
      2600  -106059.39      550.63106     -105508.76      199.80972      200.05521      736.91834    
      2700  -106048.41      549.05174     -105499.36      199.79972      200.05457      737.28207    
      2800  -106037.08      556.91514     -105480.16      199.78965      200.05267      737.6458     
      2900  -106030.79      567.66828     -105463.12      199.78183      200.0525       738.00953    
      3000  -106028.93      569.4904      -105459.44      199.77168      200.0493       738.37327    
      3100  -106028.04      561.17319     -105466.87      199.7635       200.04697      738.737      
      3200  -106024.4       552.24881     -105472.15      199.75456      200.04299      739.10073    
      3300  -106013.76      547.74009     -105466.02      199.74594      200.03879      739.46446    
      3400  -106006.92      558.54025     -105448.38      199.7382       200.03473      739.82819    
      3500  -105988.36      558.24994     -105430.11      199.72871      200.02889      740.19192    
      3600  -105991.06      568.72767     -105422.33      199.72177      200.02512      740.55565    
      3700  -105990.4       562.69357     -105427.71      199.71214      200.01885      740.91938    
      3800  -105983.51      550.16583     -105433.35      199.70219      200.01292      741.28311    
      3900  -105977.89      550.63411     -105427.26      199.69383      200.00883      741.64684    
      4000  -105967.52      557.99557     -105409.53      199.68161      200.00194      742.01057    
      4100  -105954.69      564.57923     -105390.11      199.67207      199.99804      742.3743     
      4200  -105946.42      567.06318     -105379.35      199.65999      199.99241      742.73803    
      4300  -105942.42      561.13887     -105381.29      199.64797      199.98799      743.10176    
      4400  -105943.38      556.59876     -105386.78      199.63501      199.98347      743.46549    
      4500  -105931.56      548.91178     -105382.65      199.62021      199.97812      743.82923    
      4600  -105926.8       560.15743     -105366.64      199.60697      199.97576      744.19296    
      4700  -105911.58      564.79228     -105346.79      199.59034      199.97109      744.55669    
      4800  -105897.91      565.13343     -105332.78      199.57472      199.96864      744.92042    
      4900  -105891.18      560.72393     -105330.46      199.55854      199.9666       745.28415    
      5000  -105885.06      551.60776     -105333.45      199.53933      199.96245      745.64788    
      5100  -105885.07      554.33069     -105330.74      199.52236      199.96104      746.01161    
      5200  -105873.66      557.09479     -105316.57      199.50252      199.95721      746.37534    
      5300  -105855.9       559.05074     -105296.85      199.48436      199.95522      746.73907    
      5400  -105848.18      565.52767     -105282.65      199.46525      199.95257      747.1028     
      5500  -105836.38      559.54264     -105276.84      199.44398      199.94771      747.46653    
      5600  -105835.51      559.6245      -105275.89      199.42659      199.94645      747.83026    
      5700  -105824.75      552.85807     -105271.89      199.40392      199.93963      748.19399    
      5800  -105815.01      554.57292     -105260.44      199.38558      199.93677      748.55772    
      5900  -105798.81      557.14767     -105241.67      199.3652       199.93108      748.92145    
      6000  -105790.19      565.67506     -105224.51      199.34485      199.9245       749.28519    
      6100  -105782.37      566.86185     -105215.51      199.32651      199.91917      749.64892    
      6200  -105771.98      558.35405     -105213.62      199.30553      199.91034      750.01265    
      6300  -105764.76      553.5468      -105211.21      199.28705      199.90306      750.37638    
      6400  -105753.4       553.28486     -105200.11      199.26748      199.89392      750.74011    
      6500  -105735.12      555.22477     -105179.89      199.24791      199.88394      751.10384    
      6600  -105726.69      566.42292     -105160.27      199.23059      199.87557      751.46757    
      6700  -105712.14      563.43039     -105148.71      199.20969      199.86295      751.8313     
      6800  -105704.59      558.5155      -105146.08      199.19241      199.85356      752.19503    
      6900  -105699.4       556.18434     -105143.21      199.17184      199.84064      752.55876    
      7000  -105682.44      549.77238     -105132.66      199.15284      199.82892      752.92249    
      7100  -105674.08      560.65315     -105113.42      199.13408      199.81726      753.28622    
      7200  -105653.58      560.72258     -105092.85      199.11264      199.80292      753.64995    
      7300  -105637.04      558.15655     -105078.88      199.09405      199.79179      754.01368    
      7400  -105634.15      561.54859     -105072.6       199.07156      199.77718      754.37741    
      7500  -105622.29      553.95062     -105068.34      199.05051      199.76456      754.74115    
      7600  -105612.59      554.62494     -105057.96      199.02845      199.75145      755.10488    
      7700  -105594.97      555.14523     -105039.83      199.00468      199.73743      755.46861    
      7800  -105576.88      557.68317     -105019.19      198.9817       199.72534      755.83234    
      7900  -105565.75      562.01631     -105003.74      198.95608      199.71174      756.19607    
      8000  -105556.52      560.51178     -104996.01      198.93071      199.69977      756.5598     
      8100  -105547.53      557.43771     -104990.09      198.9038       199.68692      756.92353    
      8200  -105534.99      556.30969     -104978.68      198.87587      199.67414      757.28726    
      8300  -105522.25      561.87494     -104960.37      198.84841      199.6629       757.65099    
      8400  -105499.49      559.65749     -104939.83      198.81809      199.6496       758.01472    
      8500  -105481.74      558.94623     -104922.79      198.78882      199.63844      758.37845    
      8600  -105465.46      553.17538     -104912.29      198.75745      199.62605      758.74218    
      8700  -105466.68      561.41301     -104905.27      198.72544      199.61362      759.10591    
      8800  -105451.82      556.68262     -104895.13      198.69386      199.60227      759.46964    
      8900  -105433.47      554.40224     -104879.07      198.65998      199.58895      759.83337    
      9000  -105420.81      562.18491     -104858.62      198.62724      199.57695      760.19711    
      9100  -105399.98      560.67942     -104839.3       198.59367      199.56396      760.56084    
      9200  -105382.12      556.56166     -104825.56      198.55917      199.54987      760.92457    
      9300  -105376.48      560.09335     -104816.39      198.52588      199.53655      761.2883     
      9400  -105361.02      555.54911     -104805.47      198.4908       199.52096      761.65203    
      9500  -105345.66      557.16547     -104788.5       198.4567       199.50579      762.01576    
      9600  -105324.69      557.58987     -104767.1       198.42284      199.49051      762.37949    
      9700  -105309.25      562.03803     -104747.22      198.38783      199.47314      762.74322    
      9800  -105290.56      556.42088     -104734.14      198.35447      199.45694      763.10695    
      9900  -105284.96      560.68933     -104724.27      198.31948      199.4381       763.47068    
     10000  -105266.69      554.08307     -104712.61      198.28578      199.41953      763.83441    
     10100  -105249.48      554.4901      -104694.99      198.2523       199.4006       764.19814    
     10200  -105232.52      559.05507     -104673.46      198.21764      199.37977      764.56187    
     10300  -105210.9       558.4196      -104652.48      198.18472      199.36004      764.9256     
     10400  -105194.5       557.28191     -104637.22      198.15037      199.33847      765.28933    
     10500  -105185.49      559.07139     -104626.42      198.11668      199.31724      765.65307    
     10600  -105169.65      556.39944     -104613.25      198.08292      199.29575      766.0168     
     10700  -105150.16      555.52652     -104594.63      198.04833      199.27338      766.38053    
     10800  -105130.63      557.80339     -104572.83      198.01456      199.25158      766.74426    
     10900  -105114.71      563.20241     -104551.51      197.97927      199.22853      767.10799    
     11000  -105093.88      559.78538     -104534.09      197.94447      199.20616      767.47172    
     11100  -105076.44      556.07763     -104520.36      197.90904      199.18359      767.83545    
     11200  -105058.16      551.086       -104507.07      197.87292      199.16067      768.19918    
     11300  -105050.09      559.40895     -104490.68      197.83663      199.13855      768.56291    
     11400  -105023.99      555.06314     -104468.92      197.79911      199.11584      768.92664    
     11500  -105006.38      560.45717     -104445.92      197.76198      199.09453      769.29037    
     11600  -104988.5       562.85631     -104425.64      197.72343      199.07245      769.6541     
     11700  -104975.31      564.73513     -104410.57      197.68507      199.0514       770.01783    
     11800  -104960.67      562.47999     -104398.19      197.64614      199.03029      770.38156    
     11900  -104937.1       554.50986     -104382.59      197.60612      199.00888      770.7453     
     12000  -104919.09      557.84807     -104361.25      197.56663      198.98877      771.10903    
     12100  -104892.31      555.56833     -104336.75      197.52598      198.9684       771.47276    
     12200  -104877.79      563.99974     -104313.79      197.48522      198.94814      771.83649    
     12300  -104857.05      561.30902     -104295.74      197.44435      198.92836      772.20022    
     12400  -104837.44      555.79982     -104281.64      197.4032       198.90825      772.56395    
     12500  -104824.65      558.10915     -104266.54      197.36222      198.88856      772.92768    
     12600  -104805.32      558.76801     -104246.55      197.32101      198.86824      773.29141    
     12700  -104776.57      554.94399     -104221.63      197.28018      198.84819      773.65514    
     12800  -104757.25      560.18195     -104197.06      197.23968      198.82785      774.01887    
     12900  -104738.45      560.33066     -104178.12      197.19919      198.80739      774.3826     
     13000  -104725.04      558.26014     -104166.78      197.15918      198.78692      774.74633    
     13100  -104706.24      556.70701     -104149.53      197.11914      198.7655       775.11006    
     13200  -104684.33      557.98127     -104126.35      197.08084      198.7447       775.47379    
     13300  -104659.07      556.96306     -104102.11      197.04187      198.72229      775.83752    
     13400  -104640.16      560.62575     -104079.54      197.0046       198.70021      776.20126    
     13500  -104617.59      558.92256     -104058.67      196.96816      198.67811      776.56499    
     13600  -104598.64      558.95865     -104039.68      196.93084      198.65448      776.92872    
     13700  -104580.28      552.7505      -104027.53      196.89584      198.63255      777.29245    
     13800  -104563.86      553.89828     -104009.97      196.86011      198.60905      777.65618    
     13900  -104534.76      553.12553     -103981.63      196.82551      198.58601      778.01991    
     14000  -104513.53      558.74684     -103954.79      196.79222      198.56354      778.38364    
     14100  -104490.98      558.47494     -103932.5       196.75784      198.53925      778.74737    
     14200  -104470.91      558.00243     -103912.91      196.72605      198.51716      779.1111     
     14300  -104455.05      556.63585     -103898.41      196.69306      198.49339      779.47483    
     14400  -104439.34      557.5764      -103881.77      196.66107      198.47052      779.83856    
     14500  -104411.33      559.08051     -103852.25      196.63063      198.44906      780.20229    
     14600  -104380.51      557.52973     -103822.98      196.59779      198.42541      780.56602    
     14700  -104362.48      562.04675     -103800.44      196.56822      198.40529      780.92975    
     14800  -104334.42      554.21709     -103780.2       196.53656      198.3834       781.29348    
     14900  -104316.59      554.3445      -103762.24      196.50551      198.36244      781.65722    
     15000  -104296.71      554.53897     -103742.17      196.47596      198.34343      782.02095    
     15100  -104272         559.00605     -103712.99      196.44424      198.32238      782.38468    
     15200  -104240.04      556.69424     -103683.35      196.41554      198.30468      782.74841    
     15300  -104217.45      555.95837     -103661.49      196.38473      198.28557      783.11214    
     15400  -104206.15      561.03504     -103645.11      196.35474      198.26776      783.47587    
     15500  -104185.84      559.88597     -103625.95      196.32558      198.25128      783.8396     
     15600  -104157.47      556.58448     -103600.88      196.29444      198.23345      784.20333    
     15700  -104131.25      556.56224     -103574.69      196.26682      198.21919      784.56706    
     15800  -104109.61      562.05931     -103547.55      196.23621      198.20213      784.93079    
     15900  -104082.76      562.25073     -103520.51      196.20777      198.18721      785.29452    
     16000  -104056.42      564.82384     -103491.59      196.1799       198.17292      785.65825    
     16100  -104033.43      566.4122      -103467.01      196.15008      198.15657      786.02198    
     16200  -104012.16      559.57574     -103452.58      196.12415      198.14388      786.38571    
     16300  -103987.48      554.58268     -103432.9       196.09564      198.12799      786.74944    
     16400  -103971.78      562.3959      -103409.39      196.07         198.11436      787.11318    
     16500  -103942.06      559.77135     -103382.29      196.04454      198.10049      787.47691    
     16600  -103910.18      560.60038     -103349.58      196.01785      198.08457      787.84064    
     16700  -103883.36      559.54636     -103323.81      195.99534      198.07216      788.20437    
     16800  -103866.98      558.71625     -103308.27      195.97013      198.0561       788.5681     
     16900  -103846.93      559.00111     -103287.93      195.94823      198.04236      788.93183    
     17000  -103819.04      558.10329     -103260.94      195.92643      198.02785      789.29556    
     17100  -103786.17      553.72447     -103232.45      195.90462      198.01248      789.65929    
     17200  -103761.2       558.38782     -103202.81      195.88525      197.99862      790.02302    
     17300  -103735.95      561.60514     -103174.35      195.86483      197.98305      790.38675    
     17400  -103717.05      563.15377     -103153.9       195.8461       197.9684       790.75048    
     17500  -103693.69      556.95897     -103136.73      195.82823      197.95394      791.11421    
     17600  -103667.42      555.32875     -103112.09      195.80994      197.93839      791.47794    
     17700  -103637.79      556.16191     -103081.63      195.79339      197.92415      791.84167    
     17800  -103609.63      561.75758     -103047.87      195.77608      197.9087       792.2054     
     17900  -103585.09      562.64635     -103022.44      195.76058      197.89477      792.56914    
     18000  -103562.2       561.98285     -103000.22      195.74459      197.88061      792.93287    
     18100  -103534.75      558.07458     -102976.68      195.72775      197.86572      793.2966     
     18200  -103509.65      555.71061     -102953.94      195.71386      197.85396      793.66033    
     18300  -103482.8       552.50058     -102930.3       195.69659      197.83904      794.02406    
     18400  -103459         556.65767     -102902.34      195.68156      197.82699      794.38779    
     18500  -103434.74      566.70354     -102868.04      195.66698      197.81579      794.75152    
     18600  -103394.46      556.20689     -102838.25      195.6498       197.80258      795.11525    
     18700  -103368.56      553.17275     -102815.39      195.63589      197.79274      795.47898    
     18800  -103350.24      553.00198     -102797.24      195.61946      197.78078      795.84271    
     18900  -103330.8       558.04549     -102772.75      195.6042       197.77061      796.20644    
     19000  -103295.98      553.77116     -102742.21      195.5891       197.76111      796.57017    
     19100  -103270.32      559.37499     -102710.95      195.57234      197.75066      796.9339     
     19200  -103238.44      558.13371     -102680.31      195.55799      197.74299      797.29763    
     19300  -103207.88      556.85815     -102651.02      195.54111      197.73316      797.66136    
     19400  -103185.52      563.20459     -102622.31      195.52543      197.72474      798.0251     
     19500  -103158.4       562.38861     -102596.01      195.5103       197.71712      798.38883    
     19600  -103132.91      560.48537     -102572.42      195.4933       197.70779      798.75256    
     19700  -103100.77      552.01079     -102548.76      195.47906      197.70105      799.11629    
     19800  -103074.41      553.25644     -102521.15      195.46254      197.6918       799.48002    
     19900  -103040.38      556.19414     -102484.19      195.44743      197.68388      799.84375    
     20000  -103014.6       561.98313     -102452.61      195.4332       197.6766       800.20748    
     20100  -102987.72      561.02424     -102426.69      195.4162       197.66601      800.57121    
     20200  -102959.26      554.19677     -102405.06      195.40393      197.6599       800.93494    
     20300  -102937.78      557.2303      -102380.55      195.38799      197.64943      801.29867    
     20400  -102901.77      551.99342     -102349.78      195.37443      197.64035      801.6624     
     20500  -102875.92      558.3324      -102317.59      195.36253      197.6324       802.02613    
     20600  -102842.77      554.32544     -102288.45      195.34734      197.62039      802.38986    
     20700  -102815.46      556.96979     -102258.49      195.33681      197.61266      802.75359    
     20800  -102791.45      563.84754     -102227.6       195.32353      197.60141      803.11732    
     20900  -102754.55      556.4339      -102198.12      195.31137      197.59055      803.48106    
     21000  -102732.32      559.95426     -102172.37      195.30147      197.58126      803.84479    
     21100  -102705.52      555.85114     -102149.67      195.28855      197.56835      804.20852    
     21200  -102676.05      553.14606     -102122.91      195.27896      197.55841      804.57225    
     21300  -102641.83      558.33816     -102083.49      195.26755      197.54643      804.93598    
     21400  -102608.74      558.44051     -102050.3       195.25726      197.53489      805.29971    
     21500  -102583.89      561.96739     -102021.92      195.24732      197.52374      805.66344    
     21600  -102557.31      560.04595     -101997.26      195.23633      197.51132      806.02717    
     21700  -102522.44      548.48926     -101973.96      195.22672      197.50072      806.3909     
     21800  -102500.47      554.71362     -101945.76      195.21581      197.48868      806.75463    
     21900  -102462.51      557.91254     -101904.6       195.20519      197.4772       807.11836    
     22000  -102427.89      558.07655     -101869.82      195.1952       197.46681      807.48209    
     22100  -102400.22      561.04282     -101839.18      195.18362      197.45525      807.84582    
     22200  -102370.57      558.13323     -101812.44      195.17254      197.44474      808.20955    
     22300  -102343.49      554.32717     -101789.17      195.16107      197.43431      808.57328    
     22400  -102316.55      556.21614     -101760.33      195.14858      197.42356      808.93702    
     22500  -102278.9       559.13829     -101719.77      195.13699      197.41423      809.30075    
     22600  -102248.68      564.0981      -101684.58      195.12347      197.40348      809.66448    
     22700  -102216.85      560.25954     -101656.59      195.11147      197.39461      810.02821    
     22800  -102187.48      556.07929     -101631.4       195.09774      197.38449      810.39194    
     22900  -102159.93      554.27914     -101605.65      195.08395      197.37492      810.75567    
     23000  -102134.94      558.00936     -101576.94      195.071        197.3664       811.1194     
     23100  -102099.77      561.96313     -101537.81      195.05571      197.35596      811.48313    
     23200  -102063.16      562.00048     -101501.16      195.0432       197.34856      811.84686    
     23300  -102035.06      564.58195     -101470.48      195.0278       197.3385       812.21059    
     23400  -102001.57      556.74536     -101444.83      195.01283      197.32915      812.57432    
     23500  -101976.99      557.58624     -101419.41      194.99933      197.32119      812.93805    
     23600  -101939.77      554.32317     -101385.44      194.98293      197.31067      813.30178    
     23700  -101904.36      561.37306     -101342.98      194.96968      197.30309      813.66551    
     23800  -101866.02      555.18892     -101310.84      194.95413      197.29323      814.02925    
     23900  -101841.9       558.58522     -101283.32      194.93886      197.28315      814.39298    
     24000  -101814.08      556.15631     -101257.92      194.92576      197.27484      814.75671    
     24100  -101784.62      556.0805      -101228.54      194.90971      197.26313      815.12044    
     24200  -101747.52      560.93537     -101186.58      194.89623      197.25352      815.48417    
     24300  -101716.29      566.23892     -101150.05      194.88304      197.24363      815.8479     
     24400  -101679.82      559.00223     -101120.82      194.86795      197.23136      816.21163    
     24500  -101657.23      563.0785      -101094.15      194.85497      197.22058      816.57536    
     24600  -101622         555.9557      -101066.05      194.8418       197.2089       816.93909    
     24700  -101581.37      548.99264     -101032.38      194.82798      197.19611      817.30282    
     24800  -101553.73      563.36476     -100990.37      194.81606      197.18459      817.66655    
     24900  -101512.14      556.70932     -100955.43      194.80301      197.17129      818.03028    
     25000  -101488.54      561.70732     -100926.83      194.79067      197.15806      818.39401    
     25100  -101462.29      560.7657      -100901.52      194.7789       197.14521      818.75774    
     25200  -101417.19      546.79094     -100870.4       194.76618      197.13113      819.12147    
     25300  -101382.72      557.45829     -100825.26      194.75458      197.11802      819.48521    
     25400  -101345.09      555.17485     -100789.91      194.74242      197.10409      819.84894    
     25500  -101316.46      556.05358     -100760.4       194.73007      197.08993      820.21267    
     25600  -101285.52      552.93853     -100732.59      194.71838      197.07627      820.5764     
     25700  -101261.85      560.2509      -100701.6       194.70558      197.06127      820.94013    
     25800  -101218.51      555.90931     -100662.6       194.69363      197.04759      821.30386    
     25900  -101182.76      561.28893     -100621.47      194.68074      197.03317      821.66759    
     26000  -101152.68      563.97665     -100588.7       194.66728      197.01881      822.03132    
     26100  -101118.94      559.20035     -100559.74      194.65437      197.00542      822.39505    
     26200  -101084.92      551.76071     -100533.16      194.64001      196.99109      822.75878    
     26300  -101058.6       550.28403     -100508.32      194.62637      196.97779      823.12251    
     26400  -101023.46      551.06356     -100472.4       194.6118       196.96403      823.48624    
     26500  -100983.61      557.00075     -100426.61      194.59631      196.95011      823.84997    
     26600  -100949.34      560.7528      -100388.59      194.58189      196.938        824.2137     
     26700  -100910.27      558.84283     -100351.43      194.56534      196.92445      824.57743    
     26800  -100880.06      561.32032     -100318.74      194.54939      196.91204      824.94117    
     26900  -100846.22      556.25848     -100289.96      194.53265      196.89934      825.3049     
     27000  -100812.39      551.11382     -100261.28      194.5153       196.88647      825.66863    
     27100  -100781.12      556.4047      -100224.71      194.4984       196.87426      826.03236    
     27200  -100735.22      555.10197     -100180.12      194.4808       196.8618       826.39609    
     27300  -100708.04      562.66939     -100145.38      194.46287      196.84915      826.75982    
     27400  -100672.03      556.02567     -100116         194.44533      196.83726      827.12355    
     27500  -100644.54      557.42551     -100087.11      194.42685      196.82429      827.48728    
     27600  -100608.78      555.04664     -100053.73      194.4088       196.81164      827.85101    
     27700  -100566.07      557.78084     -100008.29      194.39102      196.79896      828.21474    
     27800  -100532.77      563.27129     -99969.5        194.3732       196.78581      828.57847    
     27900  -100494.94      558.09376     -99936.842      194.35559      196.77275      828.9422     
     28000  -100465.68      557.73907     -99907.943      194.33713      196.7586       829.30593    
     28100  -100433.67      555.68157     -99877.99       194.32002      196.74553      829.66966    
     28200  -100392.12      554.64473     -99837.472      194.3017       196.73097      830.03339    
     28300  -100351.57      558.0509      -99793.52       194.28409      196.71645      830.39713    
     28400  -100317.07      557.62131     -99759.451      194.26764      196.70264      830.76086    
     28500  -100284.84      555.44606     -99729.393      194.24937      196.68608      831.12459    
     28600  -100253.3       554.86164     -99698.437      194.23254      196.6706       831.48832    
     28700  -100219.88      558.21126     -99661.667      194.216        196.65447      831.85205    
     28800  -100181.06      564.97573     -99616.084      194.19869      196.63733      832.21578    
     28900  -100139.19      560.51768     -99578.677      194.18244      196.62113      832.57951    
     29000  -100110.66      563.46455     -99547.196      194.16513      196.60288      832.94324    
     29100  -100076.75      557.49949     -99519.249      194.14901      196.58567      833.30697    
     29200  -100036.64      552.03758     -99484.6        194.13208      196.56704      833.6707     
     29300  -99994.648      551.79506     -99442.853      194.11525      196.54856      834.03443    
     29400  -99962.802      557.93331     -99404.869      194.09934      196.53069      834.39816    
     29500  -99925.692      558.02833     -99367.664      194.08175      196.51131      834.76189    
     29600  -99894.614      563.98758     -99330.626      194.06553      196.49312      835.12562    
     29700  -99853.994      557.7495      -99296.244      194.04809      196.47384      835.48935    
     29800  -99815.868      552.88774     -99262.98       194.03046      196.45423      835.85309    
     29900  -99784.547      555.66326     -99228.884      194.01417      196.43647      836.21682    
     30000  -99741.824      553.80501     -99188.019      193.99509      196.41652      836.58055    
     30100  -99705.901      561.38213     -99144.519      193.97774      196.39855      836.94428    
     30200  -99670.299      562.78457     -99107.515      193.95999      196.38036      837.30801    
     30300  -99633.635      557.66394     -99075.971      193.94013      196.36054      837.67174    
     30400  -99598.961      550.74253     -99048.218      193.92227      196.34313      838.03547    
     30500  -99572.207      555.85417     -99016.353      193.90205      196.32441      838.3992     
     30600  -99525.475      550.7468      -98974.728      193.88234      196.30681      838.76293    
     30700  -99481.495      553.03961     -98928.455      193.86257      196.28963      839.12666    
     30800  -99447.983      560.81399     -98887.169      193.84119      196.27126      839.49039    
     30900  -99408.199      558.20856     -98849.99       193.82147      196.25478      839.85412    
     31000  -99376.303      557.96373     -98818.339      193.80019      196.23749      840.21785    
     31100  -99344.084      556.32458     -98787.76       193.77801      196.21961      840.58158    
     31200  -99303.49       553.46862     -98750.021      193.75754      196.20406      840.94531    
     31300  -99262.989      561.22853     -98701.76       193.73565      196.18719      841.30905    
     31400  -99224.585      561.27379     -98663.312      193.71368      196.16999      841.67278    
     31500  -99181.09       551.02823     -98630.062      193.6924       196.15391      842.03651    
     31600  -99152.664      555.47004     -98597.194      193.67002      196.13618      842.40024    
     31700  -99115.474      553.4279      -98562.046      193.64863      196.11974      842.76397    
     31800  -99072.769      555.32499     -98517.444      193.62683      196.10277      843.1277     
     31900  -99031.761      558.43667     -98473.324      193.60428      196.0848       843.49143    
     32000  -98992.079      554.32266     -98437.756      193.58364      196.06842      843.85516    
     32100  -98962.446      555.61611     -98406.83       193.56104      196.04945      844.21889    
     32200  -98930.332      556.83395     -98373.498      193.53966      196.03117      844.58262    
     32300  -98885.638      556.17597     -98329.462      193.51947      196.01374      844.94635    
     32400  -98846.231      563.2035      -98283.027      193.49712      195.9937       845.31008    
     32500  -98807.672      560.0989      -98247.573      193.4772       195.97589      845.67381    
     32600  -98773.129      557.56729     -98215.561      193.45562      195.95595      846.03754    
     32700  -98735.9        554.41093     -98181.489      193.43457      195.93562      846.40127    
     32800  -98696.674      556.93999     -98139.734      193.41532      195.91637      846.76501    
     32900  -98657.826      565.34237     -98092.484      193.39411      195.89479      847.12874    
     33000  -98615.837      559.79976     -98056.037      193.37458      195.87472      847.49247    
     33100  -98580.771      557.71911     -98023.052      193.35421      195.85343      847.8562     
     33200  -98545.337      556.0863      -97989.251      193.33382      195.83179      848.21993    
     33300  -98511.205      556.27601     -97954.929      193.31498      195.81111      848.58366    
     33400  -98465.171      551.89595     -97913.275      193.29447      195.78809      848.94739    
     33500  -98420.168      553.63079     -97866.537      193.27626      195.76739      849.31112    
     33600  -98388.171      563.13226     -97825.039      193.25639      195.74511      849.67485    
     33700  -98347.132      558.26249     -97788.87       193.23677      195.72351      850.03858    
     33800  -98315.001      557.24035     -97757.76       193.21741      195.70238      850.40231    
     33900  -98277.677      554.85478     -97722.822      193.19645      195.67965      850.76604    
     34000  -98232.377      557.42273     -97674.955      193.17828      195.65963      851.12977    
     34100  -98188.111      558.06582     -97630.045      193.15773      195.63736      851.4935     
     34200  -98146.583      555.69275     -97590.89       193.13701      195.6154       851.85723    
     34300  -98112.319      556.19332     -97556.125      193.11802      195.59602      852.22097    
     34400  -98075.027      551.18733     -97523.84       193.09562      195.5738       852.5847     
     34500  -98043.422      555.28998     -97488.132      193.07554      195.55438      852.94843    
     34600  -97999.615      559.58604     -97440.029      193.05399      195.53394      853.31216    
     34700  -97956.306      561.05622     -97395.25       193.03155      195.51297      853.67589    
     34800  -97912.201      555.74356     -97356.458      193.01167      195.49447      854.03962    
     34900  -97879.276      559.00283     -97320.273      192.98728      195.47281      854.40335    
     35000  -97839.923      553.43681     -97286.486      192.9656       195.45453      854.76708    
     35100  -97808.169      558.13431     -97250.034      192.94293      195.43586      855.13081    
     35200  -97762.706      559.59943     -97203.106      192.91839      195.41566      855.49454    
     35300  -97720.18       561.48365     -97158.696      192.89721      195.39869      855.85827    
     35400  -97681.265      561.16721     -97120.097      192.87205      195.37795      856.222      
     35500  -97637.019      551.82841     -97085.19       192.84913      195.35991      856.58573    
     35600  -97607.524      552.68725     -97054.837      192.82631      195.34228      856.94946    
     35700  -97565.328      549.09091     -97016.237      192.801        195.32228      857.3132     
     35800  -97526.789      560.8169      -96965.972      192.77904      195.30528      857.67693    
     35900  -97487.148      563.17935     -96923.968      192.75537      195.28621      858.04066    
     36000  -97440.55       556.98849     -96883.562      192.73189      195.26696      858.40439    
     36100  -97404.898      561.00207     -96843.896      192.70985      195.24899      858.76812    
     36200  -97364.581      559.53858     -96805.042      192.6857       195.22886      859.13185    
     36300  -97321.348      555.97898     -96765.369      192.6635       195.21017      859.49558    
     36400  -97284.132      560.82175     -96723.31       192.6419       195.19129      859.85931    
     36500  -97235.635      555.65675     -96679.978      192.61907      195.17053      860.22304    
     36600  -97201.569      563.27755     -96638.291      192.59836      195.15145      860.58677    
     36700  -97161.925      556.60344     -96605.322      192.5774       195.13182      860.9505     
     36800  -97127.002      554.42003     -96572.582      192.55519      195.11029      861.31423    
     36900  -97091.655      560.18652     -96531.468      192.5359       195.09119      861.67796    
     37000  -97043.773      558.37843     -96485.394      192.51526      195.06974      862.04169    
     37100  -97002.626      559.42793     -96443.198      192.49566      195.04876      862.40542    
     37200  -96958.665      556.24444     -96402.421      192.47732      195.02884      862.76916    
     37300  -96923.354      561.48491     -96361.869      192.45694      195.00651      863.13289    
     37400  -96881.373      558.42175     -96322.951      192.43928      194.98696      863.49662    
     37500  -96842.187      556.80431     -96285.383      192.42007      194.96556      863.86035    
     37600  -96800.857      556.11216     -96244.745      192.40109      194.94369      864.22408    
     37700  -96758.617      559.56167     -96199.056      192.38458      194.92392      864.58781    
     37800  -96718.011      564.32734     -96153.684      192.36495      194.90125      864.95154    
     37900  -96673.857      560.11719     -96113.74       192.34743      194.88103      865.31527    
     38000  -96636.77       552.33827     -96084.432      192.32965      194.86132      865.679      
     38100  -96597.589      551.11227     -96046.477      192.30955      194.83889      866.04273    
     38200  -96559.61       559.3936      -96000.217      192.29326      194.82019      866.40646    
     38300  -96514.558      559.53354     -95955.025      192.27512      194.7999       866.77019    
     38400  -96472.685      559.48741     -95913.198      192.25482      194.77804      867.13392    
     38500  -96433.694      561.73894     -95871.955      192.23816      194.76065      867.49765    
     38600  -96392.839      559.68564     -95833.153      192.21794      194.74027      867.86138    
     38700  -96354.971      556.6421      -95798.329      192.19798      194.72058      868.22512    
     38800  -96315.103      555.90803     -95759.195      192.18128      194.7039       868.58885    
     38900  -96268.342      556.99828     -95711.343      192.1593       194.68267      868.95258    
     39000  -96225.56       559.39939     -95666.16       192.14126      194.66601      869.31631    
     39100  -96185.241      558.8177      -95626.424      192.12192      194.64895      869.68004    
     39200  -96148.056      558.11738     -95589.939      192.09924      194.62904      870.04377    
     39300  -96110.705      551.14589     -95559.559      192.08186      194.61453      870.4075     
     39400  -96070.561      553.99034     -95516.571      192.06022      194.59588      870.77123    
     39500  -96023.492      554.04891     -95469.443      192.0402       194.57916      871.13496    
     39600  -95982.039      558.19127     -95423.848      192.02232      194.56523      871.49869    
     39700  -95937.762      559.34611     -95378.416      191.99889      194.54623      871.86242    
     39800  -95898.767      562.94608     -95335.821      191.98088      194.53276      872.22615    
     39900  -95852.65       554.7906      -95297.859      191.96054      194.51713      872.58988    
     40000  -95825.848      560.43581     -95265.412      191.93843      194.49926      872.95361    
     40100  -95779.659      554.30929     -95225.349      191.92187      194.48695      873.31734    
     40200  -95732.494      556.68039     -95175.813      191.89941      194.46897      873.68108    
     40300  -95687.092      556.2864      -95130.805      191.87998      194.45362      874.04481    
     40400  -95651.825      562.28125     -95089.543      191.86293      194.44063      874.40854    
     40500  -95605.691      557.36511     -95048.326      191.84008      194.4213       874.77227    
     40600  -95565.086      557.23365     -95007.852      191.82365      194.40785      875.136      
     40700  -95525.055      558.14201     -94966.913      191.80521      194.39202      875.49973    
     40800  -95487.296      561.34104     -94925.955      191.78421      194.37284      875.86346    
     40900  -95438.236      552.97217     -94885.263      191.76952      194.3598       876.22719    
     41000  -95401.887      559.58776     -94842.299      191.74956      194.34045      876.59092    
     41100  -95355.315      560.03306     -94795.282      191.73174      194.32284      876.95465    
     41200  -95312.274      563.28013     -94748.994      191.71769      194.30839      877.31838    
     41300  -95268.625      557.39354     -94711.232      191.69832      194.28797      877.68211    
     41400  -95236.603      557.02309     -94679.58       191.68299      194.27153      878.04584    
     41500  -95194.652      557.22639     -94637.426      191.66762      194.25429      878.40957    
     41600  -95147.358      557.0393      -94590.319      191.64974      194.2339       878.7733     
     41700  -95107.811      563.39412     -94544.417      191.63664      194.21837      879.13704    
     41800  -95057.958      554.88092     -94503.077      191.62018      194.19896      879.50077    
     41900  -95026.667      557.3894      -94469.278      191.60385      194.17966      879.8645     
     42000  -94984.358      548.56277     -94435.795      191.59166      194.16454      880.22823    
     42100  -94946.69       558.21518     -94388.475      191.57428      194.14382      880.59196    
     42200  -94900.565      561.08425     -94339.481      191.56         194.12638      880.95569    
     42300  -94855.063      560.83933     -94294.224      191.54632      194.10999      881.31942    
     42400  -94811.65       559.59563     -94252.055      191.52866      194.08952      881.68315    
     42500  -94775.985      558.11043     -94217.874      191.51659      194.07499      882.04688    
     42600  -94739.248      557.55339     -94181.694      191.50056      194.05645      882.41061    
     42700  -94691.545      555.00199     -94136.543      191.48415      194.03812      882.77434    
     42800  -94649.763      561.06041     -94088.702      191.47231      194.02496      883.13807    
     42900  -94600.649      555.34699     -94045.302      191.45481      194.00662      883.5018     
     43000  -94562.981      558.82012     -94004.161      191.43984      193.99082      883.86553    
     43100  -94517.912      555.47224     -93962.439      191.42614      193.9769       884.22926    
     43200  -94473.996      557.19457     -93916.801      191.40799      193.95902      884.593      
     43300  -94425.47       555.99891     -93869.471      191.39408      193.9461       884.95673    
     43400  -94391.182      563.96062     -93827.222      191.37779      193.93168      885.32046    
     43500  -94350.392      556.67185     -93793.72       191.36008      193.91572      885.68419    
     43600  -94313.733      559.17544     -93754.558      191.34675      193.90428      886.04792    
     43700  -94268.419      558.65796     -93709.761      191.32928      193.88912      886.41165    
     43800  -94218.968      555.64778     -93663.32       191.31271      193.87537      886.77538    
     43900  -94172.447      558.70561     -93613.741      191.29726      193.86316      887.13911    
     44000  -94128.033      565.67605     -93562.357      191.27932      193.84875      887.50284    
     44100  -94090.194      564.75248     -93525.442      191.26401      193.83677      887.86657    
     44200  -94046.786      557.55381     -93489.232      191.24747      193.82387      888.2303     
     44300  -94011.426      559.39089     -93452.035      191.22983      193.80997      888.59403    
     44400  -93965.887      553.14891     -93412.738      191.21443      193.7983       888.95776    
     44500  -93929.086      560.00409     -93369.082      191.19744      193.78522      889.32149    
     44600  -93881.501      562.18823     -93319.313      191.18046      193.77191      889.68522    
     44700  -93838.996      567.60655     -93271.389      191.16467      193.75908      890.04896    
     44800  -93791.421      556.97209     -93234.449      191.14841      193.7456       890.41269    
     44900  -93762.449      563.80379     -93198.645      191.1327       193.73231      890.77642    
     45000  -93718.599      562.47189     -93156.127      191.11706      193.71906      891.14015    
     45100  -93667.96       554.99285     -93112.967      191.10154      193.70528      891.50388    
     45200  -93630.334      563.19973     -93067.134      191.08619      193.69136      891.86761    
     45300  -93577.464      557.3802      -93020.084      191.072        193.67802      892.23134    
     45400  -93538.743      562.12324     -92976.62       191.05732      193.66343      892.59507    
     45500  -93501.046      559.42262     -92941.624      191.04246      193.64885      892.9588     
     45600  -93462.568      558.30314     -92904.264      191.02892      193.63496      893.32253    
     45700  -93411.908      552.27454     -92859.633      191.01484      193.62007      893.68626    
     45800  -93369.819      559.68891     -92810.13       191.00171      193.60554      894.04999    
     45900  -93326.121      563.49956     -92762.622      190.98872      193.59104      894.41372    
     46000  -93284.388      563.50742     -92720.88       190.97465      193.57496      894.77745    
     46100  -93244.056      557.12054     -92686.935      190.96314      193.56106      895.14119    
     46200  -93203.007      555.76523     -92647.241      190.95006      193.54581      895.50492    
     46300  -93156.447      555.99162     -92600.455      190.93627      193.52917      895.86865    
     46400  -93109.752      560.15906     -92549.593      190.92507      193.51465      896.23238    
     46500  -93066.952      561.54131     -92505.411      190.91198      193.49861      896.59611    
     46600  -93023.918      556.57815     -92467.34       190.89902      193.48289      896.95984    
     46700  -92986.951      554.64217     -92432.309      190.88713      193.46845      897.32357    
     46800  -92943.805      555.09023     -92388.715      190.87354      193.45233      897.6873     
     46900  -92897.426      555.77258     -92341.653      190.86098      193.43705      898.05103    
     47000  -92854.711      560.40028     -92294.31       190.84873      193.42209      898.41476    
     47100  -92808.631      560.82756     -92247.803      190.83437      193.4056       898.77849    
     47200  -92767.851      561.98524     -92205.865      190.82189      193.39161      899.14222    
     47300  -92722.723      551.51929     -92171.204      190.80823      193.37681      899.50595    
     47400  -92688.18       558.56923     -92129.611      190.79392      193.36153      899.86968    
     47500  -92634.148      552.76029     -92081.388      190.78149      193.34815      900.23341    
     47600  -92593.178      563.26128     -92029.917      190.76662      193.33251      900.59715    
     47700  -92553.396      566.90017     -91986.495      190.75237      193.31826      900.96088    
     47800  -92508.316      558.1957      -91950.12       190.73917      193.30545      901.32461    
     47900  -92467.143      559.24938     -91907.894      190.72278      193.29025      901.68834    
     48000  -92423.228      558.55188     -91864.676      190.70866      193.27775      902.05207    
     48100  -92380.109      557.8287      -91822.28       190.69424      193.26494      902.4158     
     48200  -92342.781      561.40768     -91781.373      190.67755      193.25049      902.77953    
     48300  -92297.189      556.3991      -91740.79       190.66337      193.23897      903.14326    
     48400  -92254.847      557.54512     -91697.302      190.64745      193.22646      903.50699    
     48500  -92206.037      557.96824     -91648.068      190.63137      193.21353      903.87072    
     48600  -92162.054      564.08263     -91597.972      190.61677      193.2024       904.23445    
     48700  -92114.104      557.29748     -91556.806      190.6003       193.18974      904.59818    
     48800  -92078.511      557.25574     -91521.256      190.58384      193.17739      904.96191    
     48900  -92035.588      557.55848     -91478.029      190.56961      193.16706      905.32564    
     49000  -91990.247      558.07171     -91432.175      190.55286      193.15423      905.68937    
     49100  -91945.041      559.63479     -91385.406      190.53712      193.14235      906.05311    
     49200  -91899.869      561.41659     -91338.452      190.52279      193.13174      906.41684    
     49300  -91860.867      562.88618     -91297.981      190.50586      193.11845      906.78057    
     49400  -91818.731      557.54738     -91261.184      190.49076      193.10653      907.1443     
     49500  -91773.739      555.63775     -91218.102      190.47675      193.09528      907.50803    
     49600  -91726.823      558.29667     -91168.526      190.46003      193.08065      907.87176    
     49700  -91678.11       561.87239     -91116.238      190.44682      193.06953      908.23549    
     49800  -91641.637      567.57063     -91074.066      190.43268      193.05676      908.59922    
     49900  -91596.089      562.10556     -91033.983      190.41672      193.04129      908.96295    
     50000  -91549.654      555.94372     -90993.71       190.40479      193.02971      909.32668    
     50100  -91510.183      558.26817     -90951.914      190.38979      193.01481      909.69041    
     50200  -91469.356      557.61024     -90911.746      190.37558      193.00035      910.05414    
     50300  -91425.053      551.23051     -90873.822      190.36333      192.98709      910.41787    
     50400  -91384.362      553.61024     -90830.752      190.34871      192.97036      910.7816     
     50500  -91332.874      556.98426     -90775.89       190.33652      192.95588      911.14533    
     50600  -91292.912      565.35075     -90727.562      190.32435      192.94124      911.50907    
     50700  -91246.515      559.62034     -90686.895      190.30988      192.92413      911.8728     
     50800  -91201.582      554.1425      -90647.44       190.29854      192.90949      912.23653    
     50900  -91160.325      555.76544     -90604.559      190.28676      192.89345      912.60026    
     51000  -91119.471      560.34502     -90559.126      190.27387      192.8763       912.96399    
     51100  -91074.433      561.58909     -90512.844      190.26273      192.86142      913.32772    
     51200  -91027.019      558.86242     -90468.157      190.24948      192.8446       913.69145    
     51300  -90982.281      557.95068     -90424.331      190.23731      192.82874      914.05518    
     51400  -90943.266      560.35566     -90382.911      190.22592      192.81309      914.41891    
     51500  -90894.781      552.71573     -90342.065      190.21267      192.7954       914.78264    
     51600  -90857.587      556.83729     -90300.75       190.2011       192.78047      915.14637    
     51700  -90814.485      552.5949      -90261.89       190.18861      192.76532      915.5101     
     51800  -90767.369      553.40135     -90213.968      190.17441      192.74846      915.87383    
     51900  -90715.193      555.94737     -90159.245      190.163        192.73407      916.23756    
     52000  -90674.643      562.09778     -90112.546      190.14931      192.71794      916.60129    
     52100  -90633.047      561.90924     -90071.138      190.13526      192.7023       916.96503    
     52200  -90587.95       556.75746     -90031.193      190.12237      192.68889      917.32876    
     52300  -90536.898      548.44192     -89988.456      190.10678      192.67332      917.69249    
     52400  -90498.188      556.57847     -89941.609      190.09285      192.65894      918.05622    
     52500  -90457.382      562.20614     -89895.176      190.07858      192.64492      918.41995    
     52600  -90407.539      557.63627     -89849.903      190.06206      192.62971      918.78368    
     52700  -90370.062      563.12211     -89806.94       190.04758      192.61741      919.14741    
     52800  -90322.139      554.3533      -89767.786      190.03083      192.60343      919.51114    
     52900  -90281.065      556.3013      -89724.763      190.01431      192.58943      919.87487    
     53000  -90232.773      554.867       -89677.906      189.99925      192.57708      920.2386     
     53100  -90187.933      563.66378     -89624.27       189.98139      192.56244      920.60233    
     53200  -90143.263      566.97724     -89576.286      189.96529      192.55045      920.96606    
     53300  -90093.709      555.071       -89538.638      189.94828      192.53768      921.32979    
     53400  -90057.29       560.66957     -89496.62       189.93036      192.52381      921.69352    
     53500  -90010.621      558.21053     -89452.411      189.9144       192.51175      922.05725    
     53600  -89970.931      560.929       -89410.002      189.89637      192.49768      922.42099    
     53700  -89925.389      553.21846     -89372.171      189.87885      192.48444      922.78472    
     53800  -89885.362      557.89699     -89327.465      189.86242      192.47268      923.14845    
     53900  -89835.346      556.76132     -89278.585      189.84336      192.45755      923.51218    
     54000  -89792.357      561.59925     -89230.757      189.82771      192.44511      923.87591    
     54100  -89744.302      558.00046     -89186.302      189.81127      192.43153      924.23964    
     54200  -89703.409      558.62958     -89144.779      189.79288      192.41597      924.60337    
     54300  -89660.601      554.50911     -89106.092      189.77876      192.40491      924.9671     
     54400  -89617.556      552.71944     -89064.836      189.761        192.38948      925.33083    
     54500  -89575.867      552.94041     -89022.927      189.74455      192.37424      925.69456    
     54600  -89526.899      555.84179     -88971.058      189.73082      192.36132      926.05829    
     54700  -89477.671      562.01716     -88915.654      189.71331      192.34422      926.42202    
     54800  -89432.025      564.86861     -88867.157      189.69878      192.32992      926.78575    
     54900  -89386.964      560.327       -88826.637      189.68389      192.31483      927.14948    
     55000  -89350.214      565.30797     -88784.906      189.66802      192.29776      927.51321    
     55100  -89296.448      556.60986     -88739.838      189.65537      192.28358      927.87695    
     55200  -89256.854      561.35752     -88695.496      189.64031      192.26613      928.24068    
     55300  -89207.442      552.53265     -88654.909      189.62621      192.24935      928.60441    
     55400  -89168.02       552.76231     -88615.258      189.61365      192.23402      928.96814    
     55500  -89124.389      557.56491     -88566.824      189.59774      192.21513      929.33187    
     55600  -89068.954      563.87627     -88505.077      189.58517      192.19948      929.6956     
     55700  -89025.588      565.39988     -88460.188      189.57125      192.18209      930.05933    
     55800  -88977.707      556.43589     -88421.271      189.55575      192.1627       930.42306    
     55900  -88940.45       561.17734     -88379.273      189.54424      192.14737      930.78679    
     56000  -88894.885      558.17829     -88336.706      189.52927      192.12869      931.15052    
     56100  -88843.928      551.93081     -88291.998      189.51496      192.1107       931.51425    
     56200  -88803.959      556.30015     -88247.659      189.50293      192.09473      931.87798    
     56300  -88763.735      554.12642     -88209.609      189.48615      192.07453      932.24171    
     56400  -88714.267      552.98078     -88161.287      189.47336      192.05853      932.60544    
     56500  -88667.216      558.22615     -88108.99       189.45958      192.04136      932.96917    
     56600  -88624.598      564.95139     -88059.647      189.44266      192.0217       933.33291    
     56700  -88575.733      560.7244      -88015.009      189.43017      192.0068       933.69664    
     56800  -88539.337      561.75673     -87977.58       189.41454      191.98962      934.06037    
     56900  -88482.138      553.68275     -87928.455      189.39831      191.97186      934.4241     
     57000  -88436.956      556.5566      -87880.399      189.38437      191.95686      934.78783    
     57100  -88395.348      557.22261     -87838.125      189.36753      191.93953      935.15156    
     57200  -88355.367      559.98565     -87795.382      189.35133      191.92344      935.51529    
     57300  -88304.414      557.50237     -87746.912      189.33555      191.9081       935.87902    
     57400  -88254.297      555.35271     -87698.945      189.31886      191.89212      936.24275    
     57500  -88216.782      556.72563     -87660.057      189.30236      191.87671      936.60648    
     57600  -88175.327      559.52637     -87615.801      189.28504      191.86109      936.97021    
     57700  -88122.555      558.36058     -87564.194      189.26809      191.84632      937.33394    
     57800  -88073.108      561.77496     -87511.333      189.25009      191.83095      937.69767    
     57900  -88026.456      560.92808     -87465.528      189.23305      191.81642      938.0614     
     58000  -87982.747      556.20829     -87426.538      189.21522      191.80166      938.42514    
     58100  -87937.195      557.6141      -87379.581      189.19616      191.78577      938.78887    
     58200  -87894.086      560.67087     -87333.415      189.17865      191.77184      939.1526     
     58300  -87849.244      558.33221     -87290.912      189.16015      191.75659      939.51633    
     58400  -87807.322      561.94417     -87245.377      189.14189      191.74195      939.88006    
     58500  -87754.734      558.47359     -87196.26       189.1236       191.72685      940.24379    
     58600  -87708.375      560.48288     -87147.892      189.10502      191.71141      940.60752    
     58700  -87658.262      557.31908     -87100.943      189.08727      191.69671      940.97125    
     58800  -87613.227      559.25645     -87053.971      189.06835      191.68085      941.33498    
     58900  -87569.083      562.72986     -87006.353      189.05067      191.66608      941.69871    
     59000  -87524.541      564.20147     -86960.34       189.03208      191.64943      942.06244    
     59100  -87471.144      555.70632     -86915.438      189.01377      191.63316      942.42617    
     59200  -87434.339      564.14889     -86870.19       188.99711      191.6184       942.7899     
     59300  -87385.8        562.69259     -86823.108      188.97785      191.60065      943.15363    
     59400  -87336.969      560.85886     -86776.11       188.96115      191.58485      943.51736    
     59500  -87293.185      562.97364     -86730.211      188.94454      191.56873      943.8811     
     59600  -87241.095      558.10157     -86682.993      188.92543      191.54955      944.24483    
     59700  -87197.555      563.03365     -86634.521      188.91088      191.53455      944.60856    
     59800  -87150.448      560.64391     -86589.804      188.89345      191.51631      944.97229    
     59900  -87105.05       562.42421     -86542.626      188.87613      191.49758      945.33602    
     60000  -87055.325      560.22181     -86495.103      188.86192      191.48184      945.69975    
     60100  -87011.44       562.19079     -86449.249      188.84361      191.46147      946.06348    
     60200  -86965.373      564.55582     -86400.818      188.82918      191.44471      946.42721    
     60300  -86911.598      558.97807     -86352.62       188.81385      191.42644      946.79094    
     60400  -86860.948      555.99248     -86304.955      188.79671      191.40615      947.15467    
     60500  -86820.578      562.75677     -86257.822      188.78345      191.38952      947.5184     
     60600  -86769.101      557.56042     -86211.541      188.76702      191.36939      947.88213    
     60700  -86722.183      557.98557     -86164.198      188.75202      191.35096      948.24586    
     60800  -86678.276      561.89291     -86116.383      188.73746      191.33307      948.60959    
     60900  -86623.446      556.0834      -86067.362      188.72061      191.31288      948.97332    
     61000  -86575.431      557.25703     -86018.174      188.70686      191.29604      949.33706    
     61100  -86533.66       563.92192     -85969.739      188.69047      191.27636      949.70079    
     61200  -86479.645      559.0704      -85920.574      188.67517      191.25763      950.06452    
     61300  -86431.943      557.06447     -85874.878      188.66055      191.24036      950.42825    
     61400  -86384.387      556.8971      -85827.49       188.64314      191.22064      950.79198    
     61500  -86337.043      558.93986     -85778.103      188.62856      191.20393      951.15571    
     61600  -86286.011      555.49616     -85730.515      188.61127      191.1846       951.51944    
     61700  -86239.593      558.10844     -85681.485      188.59527      191.16675      951.88317    
     61800  -86194.953      563.33174     -85631.622      188.57986      191.14986      952.2469     
     61900  -86143.629      561.33921     -85582.29       188.56116      191.13028      952.61063    
     62000  -86091.44       558.64373     -85532.796      188.54604      191.11467      952.97436    
     62100  -86045.12       560.88086     -85484.239      188.5284       191.09714      953.33809    
     62200  -85994.47       559.20172     -85435.268      188.51014      191.07943      953.70182    
     62300  -85949.372      563.16782     -85386.204      188.49397      191.06423      954.06555    
     62400  -85896.855      559.71689     -85337.138      188.47463      191.04614      954.42928    
     62500  -85849.922      562.86363     -85287.059      188.45827      191.03124      954.79302    
     62600  -85798.868      560.41545     -85238.453      188.44022      191.01493      955.15675    
     62700  -85746.41       559.22981     -85187.18       188.42072      190.99789      955.52048    
     62800  -85695.897      559.65336     -85136.244      188.40457      190.98419      955.88421    
     62900  -85650.09       563.60809     -85086.481      188.38423      190.96668      956.24794    
     63000  -85593.503      559.19669     -85034.307      188.36718      190.95243      956.61167    
     63100  -85547.548      562.34006     -84985.208      188.34949      190.93758      956.9754     
     63200  -85499.539      565.74697     -84933.792      188.32876      190.91978      957.33913    
     63300  -85445.546      563.12323     -84882.423      188.31295      190.90687      957.70286    
     63400  -85393.134      561.02453     -84832.11       188.29307      190.88994      958.06659    
     63500  -85345.954      565.53447     -84780.419      188.27437      190.8745       958.43032    
     63600  -85292.31       563.02471     -84729.285      188.25735      190.86009      958.79405    
     63700  -85235.687      557.64001     -84678.047      188.23757      190.84249      959.15778    
     63800  -85185.268      559.13432     -84626.134      188.22102      190.82816      959.52151    
     63900  -85137.681      562.78645     -84574.895      188.20271      190.81161      959.88524    
     64000  -85084.953      562.95212     -84522.001      188.18471      190.79512      960.24898    
     64100  -85031.247      561.26143     -84469.985      188.16828      190.77999      960.61271    
     64200  -84983.47       565.91452     -84417.556      188.14978      190.76215      960.97644    
     64300  -84927.683      563.38465     -84364.299      188.13407      190.74685      961.34017    
     64400  -84869.521      557.45245     -84312.068      188.11627      190.72894      961.7039     
     64500  -84821.492      562.55031     -84258.942      188.09955      190.71185      962.06763    
     64600  -84770.077      563.33194     -84206.745      188.08445      190.69634      962.43136    
     64700  -84714.595      561.3043      -84153.291      188.06596      190.67696      962.79509    
     64800  -84663.714      564.00975     -84099.705      188.05179      190.66172      963.15882    
     64900  -84604.174      558.08544     -84046.088      188.03513      190.64357      963.52255    
     65000  -84553.569      561.95519     -83991.614      188.01904      190.62573      963.88628    
     65100  -84498.927      560.7322      -83938.195      188.00478      190.60962      964.25001    
     65200  -84445.844      561.15351     -83884.691      187.98766      190.59064      964.61374    
     65300  -84391.306      562.09241     -83829.214      187.9737       190.5747       964.97747    
     65400  -84332.35       557.13479     -83775.215      187.95774      190.55641      965.3412     
     65500  -84284.86       565.04422     -83719.816      187.94306      190.53921      965.70494    
     65600  -84221.153      555.97361     -83665.179      187.92869      190.52237      966.06867    
     65700  -84168.621      559.29331     -83609.328      187.91309      190.50411      966.4324     
     65800  -84117.577      564.58951     -83552.988      187.89952      190.48817      966.79613    
     65900  -84061.023      563.78762     -83497.236      187.88424      190.47054      967.15986    
     66000  -83995.263      555.46013     -83439.802      187.86933      190.45325      967.52359    
     66100  -83948.575      565.31295     -83383.262      187.85618      190.43823      967.88732    
     66200  -83890.79       563.88556     -83326.904      187.83984      190.42         968.25105    
     66300  -83831.397      562.47965     -83268.917      187.82627      190.40485      968.61478    
     66400  -83772.018      560.27106     -83211.747      187.81144      190.3883       968.97851    
     66500  -83719.33       564.35958     -83154.971      187.79633      190.37157      969.34224    
     66600  -83657.932      561.11151     -83096.82       187.78247      190.35632      969.70597    
     66700  -83601.659      562.73871     -83038.921      187.76707      190.3401       970.0697     
     66800  -83545.461      563.89552     -82981.566      187.7528       190.32509      970.43343    
     66900  -83483.522      560.02976     -82923.493      187.73754      190.3093       970.79716    
     67000  -83429.343      563.76644     -82865.577      187.72286      190.29451      971.1609     
     67100  -83372.617      564.99485     -82807.622      187.70757      190.27941      971.52463    
     67200  -83314.14       565.68562     -82748.455      187.6926       190.26475      971.88836    
     67300  -83250.26       561.54946     -82688.71       187.6776       190.25028      972.25209    
     67400  -83189.453      561.26339     -82628.19       187.66273      190.23599      972.61582    
     67500  -83131.149      563.15387     -82567.995      187.64745      190.22165      972.97955    
     67600  -83071.122      564.24406     -82506.878      187.63299      190.20854      973.34328    
     67700  -83007.944      562.64783     -82445.296      187.61724      190.19468      973.70701    
     67800  -82946.536      560.45063     -82386.086      187.6021       190.18162      974.07074    
     67900  -82887.488      561.98285     -82325.505      187.58724      190.16881      974.43447    
     68000  -82830.157      565.30397     -82264.853      187.57184      190.1555       974.7982     
     68100  -82772.854      568.08738     -82204.767      187.55715      190.14288      975.16193    
     68200  -82703.26       561.92133     -82141.339      187.54197      190.12953      975.52566    
     68300  -82643.124      564.33335     -82078.791      187.52755      190.1174       975.88939    
     68400  -82581.399      564.09397     -82017.305      187.51254      190.10441      976.25312    
     68500  -82521.3        565.29039     -81956.01       187.49815      190.09247      976.61686    
     68600  -82453.161      561.14468     -81892.016      187.48358      190.07975      976.98059    
     68700  -82398.647      570.63218     -81828.015      187.46946      190.06757      977.34432    
     68800  -82333.431      567.57988     -81765.851      187.4554       190.05527      977.70805    
     68900  -82264.557      562.76241     -81701.795      187.44106      190.04238      978.07178    
     69000  -82204.294      566.60886     -81637.685      187.42827      190.03069      978.43551    
     69100  -82139.351      565.36413     -81573.987      187.41405      190.01736      978.79924    
     69200  -82071.954      563.53236     -81508.422      187.40144      190.00548      979.16297    
     69300  -82006.573      561.61968     -81444.953      187.38807      189.99263      979.5267     
     69400  -81947.122      569.17328     -81377.949      187.3749       189.9798       979.89043    
     69500  -81880.501      567.01424     -81313.487      187.36308      189.96795      980.25416    
     69600  -81815.361      567.82882     -81247.532      187.34961      189.95424      980.61789    
     69700  -81755.299      573.15175     -81182.148      187.3383       189.94259      980.98162    
     69800  -81680.651      563.72852     -81116.922      187.32589      189.92969      981.34535    
     69900  -81616.064      565.69205     -81050.371      187.3137       189.91691      981.70909    
     70000  -81555.696      570.36298     -80985.333      187.30286      189.90517      982.07282    
     70100  -81487.403      568.90951     -80918.494      187.29047      189.89164      982.43655    
     70200  -81418.446      569.24118     -80849.205      187.27972      189.87979      982.80028    
     70300  -81346.372      563.87423     -80782.498      187.26876      189.86751      983.16401    
     70400  -81283.189      570.01477     -80713.175      187.25727      189.85451      983.52774    
     70500  -81213.222      568.00651     -80645.215      187.24746      189.8431       983.89147    
     70600  -81145.495      565.93736     -80579.557      187.23637      189.83021      984.2552     
     70700  -81077.584      568.20438     -80509.38       187.22625      189.81846      984.61893    
     70800  -81013.868      572.38266     -80441.485      187.21611      189.80658      984.98266    
     70900  -80937.59       569.74755     -80367.843      187.20549      189.79408      985.34639    
     71000  -80868.464      569.47261     -80298.991      187.19644      189.78305      985.71012    
     71100  -80807.571      578.94054     -80228.63       187.18595      189.7703       986.07385    
     71200  -80734.212      571.67616     -80162.535      187.17668      189.75889      986.43758    
     71300  -80659.455      568.13555     -80091.32       187.16695      189.74729      986.80131    
     71400  -80592.206      575.36964     -80016.836      187.1568       189.73542      987.16505    
     71500  -80522.125      576.31381     -79945.812      187.14789      189.72481      987.52878    
     71600  -80455.835      580.07602     -79875.759      187.13739      189.71274      987.89251    
     71700  -80379.496      577.20783     -79802.288      187.12842      189.70207      988.25624    
     71800  -80309.723      576.73624     -79732.987      187.11872      189.69082      988.61997    
     71900  -80244.513      582.54241     -79661.97       187.10863      189.67932      988.9837     
     72000  -80165.624      577.01813     -79588.606      187.10003      189.66949      989.34743    
     72100  -80098.571      581.13691     -79517.435      187.0896       189.65817      989.71116    
     72200  -80019.223      576.78737     -79442.436      187.08007      189.64793      990.07489    
     72300  -79946.179      580.23963     -79365.939      187.07099      189.63852      990.43862    
     72400  -79878.251      584.32611     -79293.925      187.06014      189.62718      990.80235    
     72500  -79800.252      584.26573     -79215.986      187.05153      189.61819      991.16608    
     72600  -79731.281      591.00227     -79140.279      187.04169      189.60805      991.52981    
[...]
    119700  -105469.77      554.86113     -104914.91      186.49647      189.01205      1162.847     
    119800  -105475.32      556.21994     -104919.1       186.48967      188.99368      1163.2107    
    119900  -105472.16      558.08223     -104914.08      186.48848      188.97796      1163.5744    
    120000  -105465.24      560.67846     -104904.56      186.48823      188.9585       1163.9382    
    120100  -105455.15      557.56624     -104897.58      186.48911      188.9366       1164.3019    
    120200  -105462.76      564.3731      -104898.39      186.49445      188.91641      1164.6656    
    120300  -105463.21      559.10166     -104904.11      186.49667      188.89143      1165.0293    
    120400  -105458.77      552.96858     -104905.8       186.5042       188.87131      1165.3931    
    120500  -105458.19      559.15094     -104899.04      186.50716      188.84651      1165.7568    
    120600  -105447.6       560.28719     -104887.32      186.51141      188.82554      1166.1205    
    120700  -105442.51      563.33716     -104879.18      186.51407      188.80379      1166.4843    
    120800  -105445.22      564.31079     -104880.91      186.51457      188.78175      1166.848     
    120900  -105442.78      555.51338     -104887.27      186.51629      188.76242      1167.2117    
    121000  -105444.67      554.08581     -104890.58      186.51317      188.74268      1167.5755    
    121100  -105447.34      559.15162     -104888.18      186.51055      188.72771      1167.9392    
    121200  -105449.62      566.01302     -104883.6       186.50302      188.71162      1168.3029    
    121300  -105443.11      562.89309     -104880.21      186.49365      188.69884      1168.6667    
    121400  -105438.95      557.75249     -104881.2       186.48376      188.68835      1169.0304    
    121500  -105438.21      553.49147     -104884.72      186.46788      188.67784      1169.3941    
    121600  -105443.39      555.42938     -104887.96      186.45509      188.67312      1169.7578    
    121700  -105443.44      554.65126     -104888.78      186.43516      188.6663       1170.1216    
    121800  -105441.58      553.92193     -104887.66      186.41493      188.66292      1170.4853    
    121900  -105442.94      559.84392     -104883.1       186.39129      188.65964      1170.849     
    122000  -105438.2       560.00063     -104878.2       186.36658      188.65747      1171.2128    
    122100  -105437.5       560.43995     -104877.06      186.34195      188.65715      1171.5765    
    122200  -105438.06      557.40665     -104880.65      186.31373      188.65507      1171.9402    
    122300  -105447.89      560.82191     -104887.07      186.28799      188.65583      1172.304     
    122400  -105443.72      551.6601      -104892.06      186.26006      188.65299      1172.6677    
    122500  -105449.44      556.54472     -104892.9       186.23335      188.64969      1173.0314    
    122600  -105442.41      551.96431     -104890.45      186.20825      188.64519      1173.3951    
    122700  -105452.79      564.2253      -104888.57      186.18407      188.63822      1173.7589    
    122800  -105452.98      561.85257     -104891.13      186.16413      188.62999      1174.1226    
    122900  -105463.83      565.85449     -104897.98      186.14527      188.61808      1174.4863    
    123000  -105457.92      554.58764     -104903.33      186.13082      188.60504      1174.8501    
    123100  -105466.53      560.04517     -104906.49      186.11831      188.58895      1175.2138    
    123200  -105459.32      553.77158     -104905.55      186.1076       188.57015      1175.5775    
    123300  -105464.98      562.11935     -104902.86      186.10015      188.55135      1175.9413    
    123400  -105459.7       558.1845      -104901.52      186.09401      188.52986      1176.305     
    123500  -105462.5       561.0047      -104901.5       186.09006      188.50701      1176.6687    
    123600  -105458.35      557.5236      -104900.83      186.08806      188.48381      1177.0325    
    123700  -105464.74      564.3839      -104900.35      186.08716      188.46045      1177.3962    
    123800  -105466.41      563.19757     -104903.21      186.08683      188.43605      1177.7599    
    123900  -105463.42      557.88144     -104905.54      186.08577      188.41234      1178.1236    
    124000  -105459.05      555.74133     -104903.31      186.08371      188.38979      1178.4874    
    124100  -105456.39      556.20067     -104900.19      186.08121      188.36928      1178.8511    
    124200  -105465.95      565.72155     -104900.22      186.07711      188.35049      1179.2148    
    124300  -105467.75      563.36821     -104904.39      186.07111      188.33368      1179.5786    
    124400  -105468.22      557.35691     -104910.86      186.06389      188.31938      1179.9423    
    124500  -105467.27      552.86367     -104914.41      186.05343      188.30559      1180.306     
    124600  -105461.65      549.1307      -104912.52      186.04369      188.29664      1180.6698    
    124700  -105462.11      555.56477     -104906.55      186.03084      188.28829      1181.0335    
    124800  -105469.2       566.5029      -104902.7       186.0172       188.28307      1181.3972    
    124900  -105463.53      560.06148     -104903.47      186.0015       188.27987      1181.761     
    125000  -105467.54      561.7003      -104905.84      185.98397      188.27896      1182.1247    
    125100  -105456.3       550.82225     -104905.48      185.96622      188.28005      1182.4884    
    125200  -105453.99      554.65659     -104899.33      185.9464       188.28235      1182.8521    
    125300  -105459.74      568.55209     -104891.19      185.92747      188.28674      1183.2159    
    125400  -105446.42      560.07961     -104886.34      185.90567      188.29051      1183.5796    
    125500  -105449.74      561.23629     -104888.5       185.8845       188.29678      1183.9433    
    125600  -105450.7       556.71177     -104893.99      185.86243      188.30305      1184.3071    
    125700  -105450.42      555.7955      -104894.62      185.83951      188.30938      1184.6708    
    125800  -105438.46      551.34276     -104887.12      185.81793      188.31601      1185.0345    
    125900  -105429.55      552.96734     -104876.58      185.79563      188.31891      1185.3983    
    126000  -105429.61      557.6282      -104871.98      185.77557      188.3225       1185.762     
    126100  -105427.9       551.16998     -104876.73      185.75436      188.32136      1186.1257    
    126200  -105443.34      557.95733     -104885.38      185.73455      188.31849      1186.4895    
    126300  -105443.43      554.49391     -104888.94      185.71811      188.31543      1186.8532    
    126400  -105441.55      557.79575     -104883.76      185.70131      188.30674      1187.2169    
    126500  -105430.45      557.24534     -104873.2       185.68642      188.29687      1187.5806    
    126600  -105430.51      565.29023     -104865.21      185.67145      188.28241      1187.9444    
    126700  -105425.68      556.58306     -104869.1       185.65986      188.26776      1188.3081    
    126800  -105434.1       555.18951     -104878.91      185.64673      188.24676      1188.6718    
    126900  -105440.59      554.25852     -104886.33      185.63809      188.22561      1189.0356    
    127000  -105443.82      558.23705     -104885.58      185.62841      188.20089      1189.3993    
    127100  -105437.63      555.40792     -104882.22      185.61978      188.17491      1189.763     
    127200  -105438.95      557.01354     -104881.93      185.61272      188.14666      1190.1268    
    127300  -105443.92      554.32594     -104889.6       185.60578      188.11741      1190.4905    
    127400  -105455.83      555.13134     -104900.7       185.59879      188.08766      1190.8542    
    127500  -105462.81      556.73286     -104906.07      185.59096      188.0567       1191.218     
    127600  -105457.5       553.69428     -104903.8       185.58481      188.02763      1191.5817    
    127700  -105456.77      556.4925      -104900.28      185.57646      187.99777      1191.9454    
    127800  -105460.71      560.10205     -104900.61      185.56831      187.97035      1192.3091    
    127900  -105463.3       557.93798     -104905.37      185.55986      187.94423      1192.6729    
    128000  -105468.98      557.79198     -104911.19      185.54902      187.91893      1193.0366    
    128100  -105466.33      554.53555     -104911.8       185.53821      187.89774      1193.4003    
    128200  -105461.08      553.90543     -104907.18      185.52692      187.87925      1193.7641    
    128300  -105462.86      558.22379     -104904.63      185.51313      187.86245      1194.1278    
    128400  -105468.44      563.21651     -104905.23      185.49777      187.84874      1194.4915    
    128500  -105469.28      561.61733     -104907.66      185.48236      187.83788      1194.8553    
    128600  -105468.15      557.68111     -104910.47      185.46566      187.82955      1195.219     
    128700  -105462.11      550.37363     -104911.73      185.44841      187.82277      1195.5827    
    128800  -105468.22      558.63094     -104909.58      185.42944      187.81715      1195.9465    
    128900  -105469.92      563.343       -104906.58      185.41227      187.81479      1196.3102    
    129000  -105465.13      561.77098     -104903.36      185.3924       187.81076      1196.6739    
    129100  -105458.67      558.36008     -104900.31      185.37505      187.81037      1197.0376    
    129200  -105460.84      562.9452      -104897.89      185.35716      187.80906      1197.4014    
    129300  -105450.07      552.48105     -104897.59      185.33891      187.80695      1197.7651    
    129400  -105455.29      557.93069     -104897.36      185.32352      187.8074       1198.1288    
    129500  -105452.16      557.10442     -104895.05      185.3049       187.80387      1198.4926    
    129600  -105444         553.96419     -104890.04      185.2887       187.80124      1198.8563    
    129700  -105435.19      553.35596     -104881.83      185.27216      187.79632      1199.22      
    129800  -105443.35      568.12816     -104875.22      185.25671      187.79008      1199.5838    
    129900  -105433.75      558.64287     -104875.1       185.24241      187.7828       1199.9475    
    130000  -105428.25      547.67644     -104880.57      185.22811      187.77201      1200.3112    
    130100  -105445.71      560.08493     -104885.62      185.21652      187.76201      1200.6749    
    130200  -105449.71      563.31829     -104886.4       185.20424      187.7487       1201.0387    
    130300  -105439.84      557.37301     -104882.47      185.19329      187.73328      1201.4024    
    130400  -105445.3       563.3806      -104881.92      185.18427      187.71784      1201.7661    
    130500  -105438.36      551.30506     -104887.05      185.17438      187.6979       1202.1299    
    130600  -105452.46      557.82532     -104894.64      185.16719      187.67754      1202.4936    
    130700  -105450.29      552.37322     -104897.92      185.15875      187.654        1202.8573    
    130800  -105451.48      556.50148     -104894.98      185.15295      187.62996      1203.2211    
    130900  -105445.01      557.04638     -104887.96      185.14515      187.60375      1203.5848    
    131000  -105447.12      563.96829     -104883.15      185.13779      187.57698      1203.9485    
    131100  -105445.82      560.71403     -104885.11      185.13067      187.55078      1204.3123    
    131200  -105445.52      553.25192     -104892.26      185.12133      187.52235      1204.676     
    131300  -105449.68      553.42484     -104896.26      185.11303      187.49596      1205.0397    
    131400  -105454.34      560.5696      -104893.77      185.10364      187.46855      1205.4034    
    131500  -105445.42      558.92764     -104886.49      185.09416      187.4417       1205.7672    
    131600  -105444.45      562.72852     -104881.72      185.08471      187.41542      1206.1309    
    131700  -105447.5       561.88202     -104885.62      185.07268      187.3906       1206.4946    
    131800  -105455.76      560.03742     -104895.73      185.06061      187.36825      1206.8584    
    131900  -105457.5       555.09519     -104902.4       185.04451      187.34589      1207.2221    
    132000  -105454.73      554.87311     -104899.86      185.02912      187.32763      1207.5858    
    132100  -105446.79      555.9418      -104890.85      185.00985      187.30985      1207.9496    
    132200  -105452.35      567.87486     -104884.47      184.98766      187.29409      1208.3133    
    132300  -105447.38      561.18081     -104886.2       184.96545      187.28148      1208.677     
    132400  -105454.51      559.98156     -104894.53      184.93945      187.26939      1209.0408    
    132500  -105456.27      554.11905     -104902.15      184.91276      187.25993      1209.4045    
    132600  -105456.13      553.68364     -104902.45      184.88412      187.251        1209.7682    
    132700  -105452.76      557.75456     -104895.01      184.85584      187.24433      1210.1319    
    132800  -105446.59      559.19183     -104887.4       184.82581      187.23782      1210.4957    
    132900  -105450.37      564.27928     -104886.09      184.79554      187.23218      1210.8594    
    133000  -105451.09      558.00781     -104893.09      184.76722      187.2275       1211.2231    
    133100  -105451.47      550.1361      -104901.33      184.73834      187.22016      1211.5869    
    133200  -105464.74      560.12827     -104904.61      184.71352      187.21576      1211.9506    
    133300  -105465.45      563.64964     -104901.8       184.68809      187.20853      1212.3143    
    133400  -105460.9       562.05787     -104898.84      184.66553      187.20108      1212.6781    
    133500  -105461.17      561.38947     -104899.78      184.64505      187.19125      1213.0418    
    133600  -105461.59      557.84177     -104903.75      184.62696      187.17937      1213.4055    
    133700  -105466.74      559.99854     -104906.75      184.612        187.16597      1213.7693    
    133800  -105465.57      559.75073     -104905.82      184.59857      187.14856      1214.133     
    133900  -105462.79      561.08214     -104901.71      184.58906      187.13117      1214.4967    
    134000  -105457.64      560.30096     -104897.34      184.58092      187.10992      1214.8604    
    134100  -105452.58      557.65258     -104894.92      184.575        187.08744      1215.2242    
    134200  -105452.67      559.35538     -104893.31      184.57178      187.06359      1215.5879    
    134300  -105451.11      558.27901     -104892.83      184.56979      187.03919      1215.9516    
    134400  -105448.3       554.51638     -104893.78      184.56847      187.01306      1216.3154    
    134500  -105458.75      563.3455      -104895.4       184.56681      186.98681      1216.6791    
    134600  -105451.65      555.93718     -104895.71      184.56528      186.96093      1217.0428    
    134700  -105454.56      560.66627     -104893.89      184.56224      186.93466      1217.4066    
    134800  -105453.69      560.42752     -104893.26      184.55834      186.90929      1217.7703    
    134900  -105452.31      557.29189     -104895.02      184.55318      186.88546      1218.134     
    135000  -105458.34      561.60477     -104896.74      184.54508      186.86252      1218.4978    
    135100  -105451.82      556.46147     -104895.36      184.53471      186.84197      1218.8615    
    135200  -105451.41      558.21832     -104893.2       184.52119      186.82266      1219.2252    
    135300  -105443.24      551.49302     -104891.74      184.50588      186.80582      1219.5889    
    135400  -105443.34      552.01544     -104891.32      184.48586      186.79076      1219.9527    
    135500  -105440.38      550.11178     -104890.27      184.46359      186.77805      1220.3164    
    135600  -105444         556.47965     -104887.52      184.4397       186.76866      1220.6801    
    135700  -105441.11      555.53652     -104885.57      184.41311      186.75962      1221.0439    
    135800  -105444.12      558.93145     -104885.19      184.38403      186.75125      1221.4076    
    135900  -105444.13      560.11961     -104884.01      184.35411      186.74392      1221.7713    
    136000  -105443.37      560.45842     -104882.91      184.32557      186.73791      1222.1351    
    136100  -105445.67      562.99796     -104882.67      184.29468      186.73021      1222.4988    
    136200  -105441.72      558.14543     -104883.58      184.2657       186.72317      1222.8625    
    136300  -105442.48      557.62835     -104884.86      184.23646      186.71474      1223.2263    
    136400  -105447.48      562.14535     -104885.34      184.20961      186.70511      1223.59      
    136500  -105440.53      555.19945     -104885.33      184.18314      186.69219      1223.9537    
    136600  -105447.6       561.44903     -104886.15      184.15896      186.67762      1224.3174    
    136700  -105447.55      558.39169     -104889.16      184.13823      186.66246      1224.6812    
    136800  -105446.27      554.26296     -104892.01      184.118        186.64334      1225.0449    
    136900  -105447.8       554.56017     -104893.24      184.10147      186.62423      1225.4086    
    137000  -105452.31      558.3056      -104894.01      184.08679      186.60213      1225.7724    
    137100  -105458.57      561.03521     -104897.53      184.07308      186.57644      1226.1361    
    137200  -105460.6       559.49901     -104901.1       184.06345      186.55145      1226.4998    
    137300  -105459.07      558.00742     -104901.07      184.05355      186.52239      1226.8636    
    137400  -105452.47      553.87791     -104898.59      184.0477       186.49517      1227.2273    
    137500  -105454.28      557.02895     -104897.25      184.04118      186.46412      1227.591     
    137600  -105458.53      558.82765     -104899.71      184.03717      186.43462      1227.9548    
    137700  -105465.77      561.28341     -104904.49      184.03334      186.40422      1228.3185    
    137800  -105463.02      556.25412     -104906.76      184.02968      186.37245      1228.6822    
    137900  -105456.98      553.33531     -104903.65      184.02749      186.34316      1229.0459    
    138000  -105460.58      562.91262     -104897.67      184.02356      186.31237      1229.4097    
    138100  -105456.9       562.08997     -104894.81      184.02074      186.28437      1229.7734    
    138200  -105458.15      562.09891     -104896.05      184.01514      186.25681      1230.1371    
    138300  -105457.95      560.03366     -104897.91      184.00903      186.23078      1230.5009    
    138400  -105453.55      556.70828     -104896.84      184.00264      186.20738      1230.8646    
    138500  -105450.58      558.69325     -104891.89      183.99243      186.18394      1231.2283    
    138600  -105444.37      557.66082     -104886.71      183.98344      186.16529      1231.5921    
    138700  -105448.51      561.92701     -104886.58      183.97037      186.14669      1231.9558    
    138800  -105449.13      556.87015     -104892.26      183.95667      186.13033      1232.3195    
    138900  -105454.57      555.23468     -104899.34      183.94164      186.11701      1232.6832    
    139000  -105454.89      553.73039     -104901.16      183.92286      186.10428      1233.047     
    139100  -105457.66      558.10032     -104899.56      183.90492      186.0961       1233.4107    
    139200  -105458.76      561.653       -104897.11      183.88073      186.08577      1233.7744    
