LAMMPS (2 Aug 2023 - Update 3)
OMP_NUM_THREADS environment is not set. Defaulting to 1 thread. (src/comm.cpp:98)
  using 1 OpenMP thread(s) per MPI task
Reading data file ...
  orthogonal box = (-100 -100 -2.3312511) to (100 100 38.891558)
  4 by 4 by 1 MPI processor grid
  reading atoms ...
  784 atoms
  read_data CPU = 0.004 seconds
Replication is creating a 1x1x15 = 15 times larger system...
  orthogonal box = (-100 -100 -2.3312511) to (100 100 616.01089)
  2 by 2 by 4 MPI processor grid
  11760 atoms
  replicate CPU = 0.001 seconds
System init for write_data ...
WARNING: Communication cutoff is 0.0. No ghost atoms will be generated. Atoms may get lost. (src/comm_brick.cpp:210)
Reading airebo potential file CH.airebo with DATE: 2011-10-25
Reading airebo potential file CH.airebo with DATE: 2011-10-25
Neighbor list info ...
  update: every = 1 steps, delay = 0 steps, check = yes
  max neighbors/atom: 2000, page size: 100000
  master list distance cutoff = 13.2
  ghost atom cutoff = 13.2
  binsize = 6.6, bins = 31 31 94
  5 neighbor lists, perpetual/occasional/extra = 5 0 0
  (1) pair airebo, perpetual, skip from (4)
      attributes: full, newton on, ghost
      pair build: skip/ghost
      stencil: none
      bin: none
  (2) pair airebo, perpetual, skip from (4)
      attributes: full, newton on, ghost
      pair build: skip/ghost
      stencil: none
      bin: none
  (3) pair lj/cut, perpetual, skip from (5)
      attributes: half, newton on, cut 13
      pair build: skip
      stencil: none
      bin: none
  (4) neighbor class addition, perpetual
      attributes: full, newton on, ghost
      pair build: full/bin/ghost
      stencil: full/ghost/bin/3d
      bin: standard
  (5) neighbor class addition, perpetual
      attributes: half, newton on, cut 13
      pair build: half/bin/atomonly/newton
      stencil: half/bin/3d
      bin: standard
Setting up sd style minimization ...
  Unit style    : metal
  Current step  : 0
Per MPI rank memory allocation (min/avg/max) = 10.66 | 11.23 | 11.43 Mbytes
   Step          Temp          E_pair         E_mol          TotEng         Press     
         0   0             -62453.203      0             -62453.203      6493.3023    
        22   0             -83073.829      0             -83073.829      191.11314    
Loop time of 0.568909 on 16 procs for 22 steps with 11760 atoms

97.3% CPU use with 16 MPI tasks x 1 OpenMP threads

Minimization stats:
  Stopping criterion = energy tolerance
  Energy initial, next-to-last, final = 
     -62453.2034609856  -83067.4070258808  -83073.8289160998
  Force two-norm initial, final = 3910.6556 34.034657
  Force max component initial, final = 135.10344 1.8602613
  Final line search alpha, max atom move = 0.048367349 0.089975905
  Iterations, force evaluations = 22 39

MPI task timing breakdown:
Section |  min time  |  avg time  |  max time  |%varavg| %total
---------------------------------------------------------------
Pair    | 0.50219    | 0.53086    | 0.55825    |   2.6 | 93.31
Neigh   | 0          | 0          | 0          |   0.0 |  0.00
Comm    | 0.0076748  | 0.034021   | 0.062845   |  10.3 |  5.98
Output  | 0          | 0          | 0          |   0.0 |  0.00
Modify  | 0          | 0          | 0          |   0.0 |  0.00
Other   |            | 0.004033   |            |       |  0.71

Nlocal:            735 ave         801 max         669 min
Histogram: 4 0 0 0 4 4 0 0 0 4
Nghost:           2703 ave        2769 max        2637 min
Histogram: 4 0 0 0 4 4 0 0 0 4
Neighs:              0 ave           0 max           0 min
Histogram: 16 0 0 0 0 0 0 0 0 0

Total # of neighbors = 0
Ave neighs/atom = 0
Neighbor list builds = 0
Dangerous builds = 0
Setting up Verlet run ...
  Unit style    : metal
  Current step  : 22
  Time step     : 0.001
Per MPI rank memory allocation (min/avg/max) = 11.28 | 11.91 | 12.05 Mbytes
   Step          Temp          E_pair         E_mol          TotEng         Press          Volume    
        22   300           -83073.829      0             -82617.838      210.80499      24733686     
Loop time of 4.89222e-05 on 16 procs for 0 steps with 11760 atoms

16.9% CPU use with 16 MPI tasks x 1 OpenMP threads

MPI task timing breakdown:
Section |  min time  |  avg time  |  max time  |%varavg| %total
---------------------------------------------------------------
Pair    | 0          | 0          | 0          |   0.0 |  0.00
Neigh   | 0          | 0          | 0          |   0.0 |  0.00
Comm    | 0          | 0          | 0          |   0.0 |  0.00
Output  | 0          | 0          | 0          |   0.0 |  0.00
Modify  | 0          | 0          | 0          |   0.0 |  0.00
Other   |            | 4.892e-05  |            |       |100.00

Nlocal:            735 ave         742 max         729 min
Histogram: 4 0 0 4 0 2 2 0 2 2
Nghost:           2703 ave        2709 max        2696 min
Histogram: 2 2 0 2 2 0 4 0 0 4
Neighs:              0 ave           0 max           0 min
Histogram: 16 0 0 0 0 0 0 0 0 0

Total # of neighbors = 0
Ave neighs/atom = 0
Neighbor list builds = 0
Dangerous builds = 0
WARNING: New thermo_style command, previous thermo_modify settings will be lost (src/output.cpp:903)
WARNING: Dump 2 includes no atom IDs and is not sorted by ID. This may complicate post-processing tasks or visualization (src/dump.cpp:221)
Setting up Verlet run ...
  Unit style    : metal
  Current step  : 0
  Time step     : 0.001
Per MPI rank memory allocation (min/avg/max) = 12.78 | 13.41 | 13.55 Mbytes
   Step         PotEng         KinEng         TotEng           Lx             Ly             Lz      
         0  -83073.829      455.99101     -82617.838      200            200            618.34214    
       100  -82904.625      321.25197     -82583.373      200.02015      200.0231       618.65131    
       200  -82874.532      339.04634     -82535.485      200.02677      200.02714      618.96048    
       300  -82881.106      397.64942     -82483.457      200.00839      199.99837      619.26965    
       400  -82854.968      422.39877     -82432.57       200.0215       200.01473      619.57882    
       500  -82801.858      418.32529     -82383.532      200.03021      200.02747      619.88799    
       600  -82708.082      373.87121     -82334.211      200.01462      200.0018       620.19716    
       700  -82725.074      441.75166     -82283.322      200.02559      200.01434      620.50634    
       800  -82674.243      434.60611     -82239.636      200.02843      200.02338      620.81551    
       900  -82666.738      456.83172     -82209.906      200.0116       199.99633      621.12468    
      1000  -82736.297      516.04212     -82220.255      200.02801      200.01136      621.43385    
      1100  -82741.385      474.3358      -82267.049      200.02688      200.01728      621.74302    
      1200  -82744.493      441.88956     -82302.604      200.00644      199.98933      622.05219    
      1300  -82769.364      455.61506     -82313.749      200.02446      200.00425      622.36136    
      1400  -82705.601      421.56223     -82284.039      200.02703      200.01683      622.67053    
      1500  -82676.455      434.16908     -82242.286      200.00345      199.98651      622.9797     
      1600  -82709.764      501.27228     -82208.492      200.02273      199.99745      623.28888    
      1700  -82668.967      463.62125     -82205.346      200.02876      200.01033      623.59805    
      1800  -82695.493      460.18785     -82235.305      200.00337      199.98353      623.90722    
      1900  -82733.859      470.25258     -82263.606      200.01826      199.99056      624.21639    
      2000  -82697.618      424.08263     -82273.536      200.02435      200.00058      624.52556    
      2100  -82682.691      432.58603     -82250.105      200.00185      199.9817       624.83473    
      2200  -82692.731      478.367       -82214.364      200.01517      199.98693      625.1439     
      2300  -82654.121      458.75292     -82195.368      200.02025      199.99113      625.45307    
      2400  -82671.578      467.07047     -82204.507      199.99788      199.97352      625.76224    
      2500  -82691.68       463.04708     -82228.633      200.01179      199.98312      626.07142    
      2600  -82674.21       433.5743      -82240.635      200.01731      199.9844       626.38059    
      2700  -82664.094      439.94474     -82224.149      199.99422      199.9666       626.68976    
      2800  -82660.93       468.64221     -82192.287      200.00554      199.97642      626.99893    
      2900  -82634.936      462.657       -82172.279      200.01434      199.97804      627.3081     
      3000  -82638.699      462.97114     -82175.727      199.99185      199.96028      627.61727    
      3100  -82663.081      468.10854     -82194.972      199.99972      199.96902      627.92644    
      3200  -82640.526      433.19391     -82207.332      200.00679      199.96907      628.23561    
      3300  -82634.091      438.20589     -82195.885      199.98853      199.95305      628.54478    
      3400  -82638.607      468.75116     -82169.856      199.99467      199.96228      628.85395    
      3500  -82617.411      462.48924     -82154.922      199.99942      199.96024      629.16313    
      3600  -82622.805      461.21364     -82161.591      199.98389      199.94362      629.4723     
      3700  -82627.769      452.68703     -82175.082      199.99031      199.95463      629.78147    
      3800  -82615.453      441.29489     -82174.158      199.9925       199.95228      630.09064    
      3900  -82598.824      447.16479     -82151.659      199.97809      199.93439      630.39981    
      4000  -82593.038      467.26456     -82125.774      199.98446      199.9451       630.70898    
      4100  -82578.71       463.02717     -82115.683      199.98493      199.94452      631.01815    
      4200  -82584.478      459.75678     -82124.722      199.97202      199.92626      631.32732    
      4300  -82590.413      454.82024     -82135.593      199.97797      199.93494      631.63649    
      4400  -82579.156      446.58798     -82132.568      199.97545      199.93434      631.94567    
      4500  -82570.672      455.61598     -82115.056      199.96476      199.91763      632.25484    
      4600  -82561.56       463.75571     -82097.804      199.97143      199.92427      632.56401    
      4700  -82557.975      464.45072     -82093.525      199.96599      199.92315      632.87318    
      4800  -82550.01       448.15458     -82101.856      199.95646      199.90849      633.18235    
      4900  -82556.963      451.06375     -82105.899      199.96389      199.91395      633.49152    
      5000  -82542.417      448.56676     -82093.85       199.95693      199.91094      633.80069    
      5100  -82534.125      461.00137     -82073.123      199.94738      199.89766      634.10986    
      5200  -82521.127      460.10141     -82061.025      199.95533      199.90268      634.41903    
      5300  -82518.086      457.40447     -82060.682      199.94748      199.89932      634.7282     
      5400  -82512.253      450.14633     -82062.107      199.93778      199.88746      635.03738    
      5500  -82503.724      448.78802     -82054.936      199.9457       199.89067      635.34655    
      5600  -82497.098      458.71493     -82038.383      199.93753      199.88573      635.65572    
      5700  -82490.196      463.44112     -82026.755      199.92791      199.87633      635.96489    
      5800  -82483.083      454.6993      -82028.383      199.93426      199.87879      636.27406    
      5900  -82485.149      453.2702      -82031.879      199.92555      199.87106      636.58323    
      6000  -82474.293      450.01346     -82024.279      199.91735      199.86419      636.8924     
      6100  -82456.188      452.44395     -82003.744      199.92301      199.86632      637.20157    
      6200  -82450.856      466.30141     -81984.554      199.9137       199.85664      637.51074    
      6300  -82446.862      468.10941     -81978.753      199.90597      199.85017      637.81992    
      6400  -82433.884      448.05289     -81985.831      199.91008      199.85278      638.12909    
      6500  -82439.2        451.10532     -81988.094      199.9007       199.8421       638.43826    
      6600  -82425.497      447.30938     -81978.188      199.8944       199.83664      638.74743    
      6700  -82404.397      447.41373     -81956.983      199.89707      199.83786      639.0566     
      6800  -82403.941      464.54002     -81939.401      199.88723      199.82716      639.36577    
      6900  -82399.992      463.8965      -81936.096      199.88206      199.82328      639.67494    
      7000  -82388.098      446.67807     -81941.42       199.88332      199.82257      639.98411    
      7100  -82394.207      454.02023     -81940.187      199.87241      199.81173      640.29328    
      7200  -82375.355      449.37215     -81925.983      199.86877      199.80883      640.60246    
      7300  -82357.656      452.38066     -81905.276      199.86889      199.80663      640.91163    
      7400  -82350.595      461.55786     -81889.037      199.85894      199.79565      641.2208     
      7500  -82342.829      459.82024     -81883.009      199.85521      199.7935       641.52997    
      7600  -82330.15       445.8025      -81884.348      199.85231      199.79009      641.83914    
      7700  -82336.105      454.49237     -81881.613      199.84297      199.77861      642.14831    
      7800  -82327.406      454.52135     -81872.884      199.84065      199.77646      642.45748    
      7900  -82311.551      451.77751     -81859.773      199.83649      199.77238      642.76665    
      8000  -82306.302      458.36262     -81847.94       199.82709      199.76107      643.07582    
      8100  -82292.259      453.51886     -81838.74       199.82441      199.75872      643.38499    
      8200  -82282.227      454.79002     -81827.437      199.81916      199.75317      643.69417    
      8300  -82273.197      459.38487     -81813.812      199.81055      199.74226      644.00334    
      8400  -82263.072      459.28642     -81803.786      199.80708      199.74002      644.31251    
      8500  -82254.355      454.80628     -81799.549      199.80074      199.73248      644.62168    
      8600  -82253.217      455.44354     -81797.774      199.79308      199.72141      644.93085    
      8700  -82246.168      452.82168     -81793.346      199.78991      199.71934      645.24002    
      8800  -82231.092      451.33816     -81779.754      199.78177      199.71165      645.54919    
      8900  -82216.407      454.64837     -81761.758      199.77433      199.70131      645.85836    
      9000  -82205.079      456.07884     -81749          199.7708       199.69808      646.16753    
      9100  -82199.482      457.55109     -81741.931      199.76235      199.68928      646.47671    
      9200  -82194.052      454.87236     -81739.18       199.75497      199.67993      646.78588    
      9300  -82185.182      455.01597     -81730.166      199.7504       199.6766       647.09505    
      9400  -82172.415      456.58174     -81715.833      199.7414       199.66748      647.40422    
      9500  -82162.75       459.54013     -81703.21       199.73528      199.65796      647.71339    
      9600  -82149.002      455.2582      -81693.744      199.73081      199.65362      648.02256    
      9700  -82139.324      453.88707     -81685.437      199.71985      199.64507      648.33173    
      9800  -82131.259      452.77108     -81678.488      199.71396      199.63566      648.6409     
      9900  -82122.228      454.31229     -81667.916      199.7098       199.62967      648.95007    
     10000  -82113.075      461.54254     -81651.532      199.69747      199.6217       649.25925    
     10100  -82097.321      458.88317     -81638.437      199.69092      199.61433      649.56842    
     10200  -82081.171      452.66489     -81628.506      199.6874       199.60635      649.87759    
     10300  -82074.945      456.43506     -81618.51       199.67528      199.59663      650.18676    
     10400  -82062.651      456.51979     -81606.132      199.66804      199.59078      650.49593    
     10500  -82057.106      461.40803     -81595.698      199.66285      199.58244      650.8051     
     10600  -82050.308      456.9376      -81593.371      199.65184      199.5715       651.11427    
     10700  -82036.557      451.08917     -81585.468      199.64418      199.56636      651.42344    
     10800  -82021.972      452.34993     -81569.623      199.63722      199.55831      651.73261    
     10900  -82007.495      454.76972     -81552.725      199.62756      199.54631      652.04178    
     11000  -82000.284      459.43586     -81540.848      199.61968      199.54069      652.35096    
     11100  -81988.748      457.51923     -81531.229      199.61057      199.53267      652.66013    
     11200  -81982.356      455.83697     -81526.519      199.60161      199.52042      652.9693     
     11300  -81972.465      453.0524      -81519.413      199.59416      199.51344      653.27847    
     11400  -81954.75       453.63723     -81501.113      199.5834       199.50522      653.58764    
     11500  -81946.152      461.59252     -81484.56       199.57326      199.49441      653.89681    
     11600  -81932.953      457.00725     -81475.946      199.56629      199.48656      654.20598    
     11700  -81916.406      450.1948      -81466.211      199.55623      199.4763       654.51515    
     11800  -81906.248      458.82018     -81447.428      199.54557      199.46541      654.82432    
     11900  -81891.006      459.26351     -81431.742      199.53805      199.458        655.1335     
     12000  -81882.583      459.57158     -81423.011      199.52671      199.44668      655.44267    
     12100  -81878.33       459.76861     -81418.562      199.51601      199.43584      655.75184    
     12200  -81858.384      448.66637     -81409.718      199.50822      199.42759      656.06101    
     12300  -81849.442      452.82883     -81396.613      199.49608      199.41543      656.37018    
     12400  -81835.396      458.75287     -81376.644      199.48517      199.40557      656.67935    
     12500  -81821.216      459.53255     -81361.684      199.47723      199.39669      656.98852    
     12600  -81814.004      460.61085     -81353.393      199.4645       199.38282      657.29769    
     12700  -81798.124      451.19371     -81346.93       199.45445      199.37335      657.60686    
     12800  -81789.078      453.54928     -81335.528      199.44487      199.36336      657.91604    
     12900  -81771.993      453.94315     -81318.05       199.43171      199.35013      658.22521    
     13000  -81763.377      461.21021     -81302.167      199.42147      199.34047      658.53438    
     13100  -81750.958      458.89322     -81292.064      199.41145      199.32804      658.84355    
     13200  -81741.928      457.42236     -81284.505      199.39845      199.31467      659.15272    
     13300  -81727.534      454.37799     -81273.156      199.38731      199.30577      659.46189    
     13400  -81706.595      454.26806     -81252.327      199.37534      199.29277      659.77106    
     13500  -81692.74       457.38823     -81235.352      199.36308      199.27863      660.08023    
     13600  -81679.057      454.18537     -81224.872      199.35129      199.26813      660.3894     
     13700  -81675.056      456.29336     -81218.763      199.33751      199.25522      660.69857    
     13800  -81666.274      455.36953     -81210.905      199.32615      199.2404       661.00775    
     13900  -81655.79       457.75217     -81198.037      199.31394      199.22902      661.31692    
     14000  -81639.06       460.255       -81178.805      199.29947      199.21592      661.62609    
     14100  -81619.559      457.39912     -81162.16       199.28774      199.20103      661.93526    
     14200  -81606.423      456.71084     -81149.712      199.27523      199.18877      662.24443    
     14300  -81593.477      453.94096     -81139.536      199.26024      199.17556      662.5536     
     14400  -81582.386      452.18854     -81130.198      199.24741      199.16081      662.86277    
     14500  -81565.736      448.99041     -81116.746      199.23489      199.147        663.17194    
     14600  -81551.573      456.98084     -81094.592      199.21947      199.13323      663.48111    
     14700  -81543.623      462.34854     -81081.275      199.20529      199.11939      663.79029    
     14800  -81529.496      454.6025      -81074.893      199.19256      199.10504      664.09946    
     14900  -81514.158      451.46926     -81062.689      199.17815      199.08941      664.40863    
     15000  -81499.911      456.11821     -81043.793      199.16355      199.07498      664.7178     
     15100  -81486.154      458.55813     -81027.596      199.14809      199.06184      665.02697    
     15200  -81472.341      456.5486      -81015.792      199.13271      199.0452       665.33614    
     15300  -81458.608      452.42823     -81006.18       199.11988      199.02922      665.64531    
     15400  -81448.175      452.86623     -80995.309      199.10379      199.01469      665.95448    
     15500  -81434.344      453.46427     -80980.88       199.08693      198.99886      666.26365    
     15600  -81414.548      453.84822     -80960.7        199.073        198.98245      666.57283    
     15700  -81407.045      462.86713     -80944.178      199.0568       198.96548      666.882      
     15800  -81387.251      453.77674     -80933.474      199.04006      198.94995      667.19117    
     15900  -81376.667      451.86502     -80924.802      199.02537      198.93246      667.50034    
     16000  -81363.275      452.57604     -80910.699      199.00843      198.91474      667.80951    
     16100  -81351.588      463.88376     -80887.704      198.99027      198.89927      668.11868    
     16200  -81336.036      463.24479     -80872.791      198.97536      198.88129      668.42785    
     16300  -81321.865      457.63127     -80864.233      198.95851      198.86228      668.73702    
     16400  -81308.046      454.3469      -80853.7        198.94052      198.84571      669.04619    
     16500  -81292.946      454.29269     -80838.654      198.9241       198.82735      669.35536    
     16600  -81278.404      455.60297     -80822.801      198.90636      198.80851      669.66454    
     16700  -81262.594      456.28489     -80806.309      198.88828      198.79123      669.97371    
     16800  -81249.938      459.32071     -80790.617      198.87211      198.77232      670.28288    
     16900  -81234.023      459.04295     -80774.98       198.85362      198.75257      670.59205    
     17000  -81218.003      455.01042     -80762.993      198.8344       198.73558      670.90122    
     17100  -81202.536      450.46366     -80752.073      198.81696      198.71628      671.21039    
     17200  -81188.249      451.58884     -80736.661      198.7988       198.69508      671.51956    
     17300  -81172.666      455.58329     -80717.083      198.77968      198.67793      671.82873    
     17400  -81161.641      463.00656     -80698.635      198.76109      198.65833      672.1379     
     17500  -81149.97       459.50161     -80690.468      198.74185      198.63732      672.44708    
     17600  -81132.791      450.72018     -80682.071      198.72238      198.62024      672.75625    
     17700  -81116.757      452.58398     -80664.173      198.70312      198.59921      673.06542    
     17800  -81103.579      459.45965     -80644.119      198.68539      198.57697      673.37459    
     17900  -81089.071      461.74817     -80627.323      198.66512      198.55997      673.68376    
     18000  -81072.262      454.07048     -80618.191      198.64281      198.53974      673.99293    
     18100  -81061.509      451.58589     -80609.923      198.62506      198.51811      674.3021     
     18200  -81043.365      453.988       -80589.377      198.6048       198.49874      674.61127    
     18300  -81026.63       457.62909     -80569.001      198.58263      198.47789      674.92044    
     18400  -81012.907      459.83216     -80553.075      198.5644       198.45628      675.22962    
     18500  -80995.27       452.70425     -80542.566      198.54312      198.43579      675.53879    
     18600  -80986.417      454.04699     -80532.37       198.5203       198.41574      675.84796    
     18700  -80967.945      456.75942     -80511.185      198.5015       198.39367      676.15713    
     18800  -80948.692      459.84373     -80488.848      198.47996      198.37153      676.4663     
     18900  -80932.992      458.76576     -80474.226      198.45695      198.35131      676.77547    
     19000  -80919.736      455.31728     -80464.419      198.43631      198.3289       677.08464    
     19100  -80907.034      454.03095     -80453.004      198.41526      198.306        677.39381    
     19200  -80890.924      455.92382     -80435          198.39167      198.2854       677.70298    
     19300  -80871.055      462.6174      -80408.438      198.37114      198.26289      678.01215    
     19400  -80853.587      460.04021     -80393.547      198.35005      198.23933      678.32133    
     19500  -80840.61       457.96775     -80382.642      198.32554      198.21832      678.6305     
     19600  -80823.516      453.00623     -80370.51       198.30406      198.19603      678.93967    
     19700  -80806.512      452.22869     -80354.283      198.28206      198.17176      679.24884    
     19800  -80787.528      458.06562     -80329.462      198.25719      198.15087      679.55801    
     19900  -80771.941      460.10061     -80311.841      198.23618      198.12731      679.86718    
     20000  -80756.411      455.87331     -80300.537      198.2142       198.10102      680.17635    
     20100  -80739.635      452.94734     -80286.687      198.18886      198.08078      680.48552    
     20200  -80727.082      458.21128     -80268.871      198.16528      198.05772      680.79469    
     20300  -80708.771      464.83404     -80243.937      198.14295      198.0312       681.10387    
     20400  -80686.308      460.26238     -80226.046      198.11856      198.00945      681.41304    
     20500  -80673.112      455.81552     -80217.296      198.09422      197.98531      681.72221    
     20600  -80657.322      453.4368      -80203.886      198.07234      197.95842      682.03138    
     20700  -80645.581      459.3587      -80186.222      198.04773      197.93538      682.34055    
     20800  -80625.112      457.50225     -80167.609      198.0217       197.91208      682.64972    
     20900  -80611.005      460.88783     -80150.117      197.99941      197.88579      682.95889    
     21000  -80592.726      452.93514     -80139.791      197.97395      197.86154      683.26806    
     21100  -80579.776      452.74841     -80127.028      197.94865      197.83788      683.57723    
     21200  -80564.947      458.07762     -80106.869      197.92615      197.81082      683.8864     
     21300  -80544.964      461.63997     -80083.324      197.90043      197.78588      684.19558    
     21400  -80523.515      455.81685     -80067.699      197.87454      197.7637       684.50475    
     21500  -80510.309      456.63593     -80053.673      197.85099      197.73633      684.81392    
     21600  -80496.609      457.8506      -80038.759      197.82706      197.71038      685.12309    
     21700  -80479.71       455.9775      -80023.732      197.80055      197.68718      685.43226    
     21800  -80459.903      453.84024     -80006.062      197.77528      197.66058      685.74143    
     21900  -80446.677      463.79039     -79982.887      197.75114      197.63517      686.0506     
     22000  -80424.713      460.63768     -79964.075      197.72445      197.61108      686.35977    
     22100  -80407.2        455.23981     -79951.96       197.69975      197.58402      686.66894    
     22200  -80393.642      452.59758     -79941.044      197.67601      197.55819      686.97812    
     22300  -80374.853      451.75777     -79923.095      197.64874      197.53328      687.28729    
     22400  -80354.691      453.41025     -79901.28       197.62371      197.50671      687.59646    
     22500  -80338.519      454.59237     -79883.927      197.59918      197.48086      687.90563    
     22600  -80323.187      454.2077      -79868.98       197.57188      197.45547      688.2148     
     22700  -80307.703      456.31478     -79851.388      197.54691      197.42879      688.52397    
     22800  -80289.562      462.54346     -79827.019      197.52234      197.40174      688.83314    
     22900  -80270.482      462.1995      -79808.283      197.49508      197.37625      689.14231    
     23000  -80253.665      454.72021     -79798.945      197.46967      197.35012      689.45148    
     23100  -80239.429      454.4179      -79785.011      197.44508      197.32319      689.76066    
     23200  -80218.382      453.85151     -79764.531      197.41845      197.29692      690.06983    
     23300  -80198.226      455.39352     -79742.832      197.39308      197.27099      690.379      
     23400  -80184          459.69575     -79724.304      197.36835      197.24331      690.68817    
     23500  -80168.327      455.04297     -79713.284      197.34147      197.21793      690.99734    
     23600  -80151.424      450.22416     -79701.2        197.31543      197.19226      691.30651    
     23700  -80136.978      456.50119     -79680.476      197.29075      197.16493      691.61568    
     23800  -80114.882      459.4505      -79655.432      197.26472      197.13902      691.92485    
     23900  -80094.075      457.44899     -79636.626      197.23935      197.11328      692.23402    
     24000  -80072.089      452.74342     -79619.346      197.21557      197.08567      692.54319    
     24100  -80054.984      455.47179     -79599.512      197.18929      197.0604       692.85237    
     24200  -80038.683      459.18379     -79579.499      197.163        197.03597      693.16154    
     24300  -80028.186      459.54238     -79568.644      197.13815      197.00903      693.47071    
     24400  -80013.031      455.76884     -79557.262      197.11275      196.98384      693.77988    
     24500  -79989.087      451.01502     -79538.072      197.08716      196.95959      694.08905    
     24600  -79964.271      451.68041     -79512.591      197.06363      196.93209      694.39822    
     24700  -79951.126      459.69446     -79491.432      197.03913      196.90715      694.70739    
     24800  -79935.926      461.23037     -79474.695      197.01201      196.88439      695.01656    
     24900  -79917.46       453.93298     -79463.527      196.98783      196.85788      695.32573    
     25000  -79898.751      452.14705     -79446.604      196.96468      196.83244      695.63491    
     25100  -79877.208      451.75549     -79425.452      196.93822      196.80885      695.94408    
     25200  -79859.731      455.83629     -79403.894      196.91393      196.78384      696.25325    
     25300  -79842.247      456.98924     -79385.258      196.89063      196.75856      696.56242    
     25400  -79828.67       455.88361     -79372.786      196.86505      196.73505      696.87159    
     25500  -79812.007      450.14351     -79361.863      196.84093      196.71096      697.18076    
     25600  -79787.273      448.06838     -79339.205      196.81753      196.68608      697.48993    
     25700  -79773.178      457.72887     -79315.449      196.7928       196.66264      697.7991     
     25800  -79756.343      461.83767     -79294.505      196.76883      196.63855      698.10827    
     25900  -79733.857      454.82263     -79279.035      196.74657      196.6141       698.41745    
     26000  -79720.663      453.98501     -79266.678      196.72208      196.59095      698.72662    
     26100  -79699.857      450.9293      -79248.928      196.69835      196.56751      699.03579    
     26200  -79672.111      452.56102     -79219.549      196.67576      196.54442      699.34496    
     26300  -79655.442      456.79292     -79198.649      196.6515       196.52129      699.65413    
     26400  -79637.49       454.22182     -79183.268      196.62879      196.498        699.9633     
     26500  -79620.656      449.84215     -79170.814      196.60629      196.47494      700.27247    
     26600  -79603.386      450.87501     -79152.511      196.58222      196.45224      700.58164    
     26700  -79587.083      460.62645     -79126.457      196.56027      196.42964      700.89081    
     26800  -79560.854      457.03322     -79103.82       196.53806      196.40605      701.19998    
     26900  -79544.462      457.20846     -79087.253      196.5151       196.38377      701.50916    
     27000  -79527.843      455.26247     -79072.581      196.49341      196.36123      701.81833    
     27100  -79514.333      457.66556     -79056.667      196.46984      196.33851      702.1275     
     27200  -79490.903      450.80845     -79040.094      196.44754      196.31744      702.43667    
     27300  -79477.528      453.95812     -79023.57       196.42586      196.2946       702.74584    
     27400  -79452.208      453.13546     -78999.072      196.40395      196.27182      703.05501    
     27500  -79429.381      455.37235     -78974.009      196.38218      196.25117      703.36418    
     27600  -79413.406      459.2172      -78954.189      196.36074      196.22855      703.67335    
     27700  -79393.354      453.93603     -78939.418      196.33987      196.20614      703.98252    
     27800  -79379.207      451.11653     -78928.091      196.31827      196.18538      704.2917     
     27900  -79361.884      452.98455     -78908.899      196.29679      196.16376      704.60087    
     28000  -79342.056      455.47052     -78886.585      196.27587      196.14264      704.91004    
     28100  -79321.366      455.76264     -78865.604      196.25483      196.12227      705.21921    
     28200  -79297.992      453.91668     -78844.075      196.23379      196.10111      705.52838    
     28300  -79282.584      462.24378     -78820.34       196.21304      196.0806       705.83755    
     28400  -79253.027      458.47569     -78794.551      196.19305      196.05995      706.14672    
     28500  -79238.76       461.7908      -78776.969      196.1723       196.03931      706.45589    
     28600  -79227.365      459.07009     -78768.295      196.15159      196.01928      706.76506    
     28700  -79209.931      458.55724     -78751.374      196.1316       195.99912      707.07424    
     28800  -79185.491      456.2631      -78729.228      196.11199      195.97797      707.38341    
     28900  -79162.757      458.85464     -78703.902      196.09245      195.95789      707.69258    
     29000  -79143.927      461.01122     -78682.916      196.07228      195.93841      708.00175    
     29100  -79127.592      457.58729     -78670.005      196.05237      195.91807      708.31092    
     29200  -79113.145      455.16737     -78657.978      196.03296      195.89837      708.62009    
     29300  -79085.089      449.57668     -78635.513      196.01252      195.87949      708.92926    
     29400  -79063.347      454.54408     -78608.803      195.99332      195.8595       709.23843    
     29500  -79043.764      457.7613      -78586.003      195.97478      195.83929      709.5476     
     29600  -79027.504      458.08542     -78569.418      195.95544      195.81956      709.85677    
     29700  -79012.588      455.94726     -78556.641      195.93665      195.79982      710.16595    
     29800  -78991.573      453.68376     -78537.889      195.91818      195.78106      710.47512    
     29900  -78971.203      455.30998     -78515.893      195.89925      195.7609       710.78429    
     30000  -78951.144      457.45726     -78493.687      195.88063      195.74221      711.09346    
     30100  -78928.24       456.73626     -78471.503      195.86156      195.72411      711.40263    
     30200  -78906.904      460.75311     -78446.151      195.84302      195.70463      711.7118     
     30300  -78886.719      463.26423     -78423.455      195.82584      195.68571      712.02097    
     30400  -78869.064      456.169       -78412.895      195.807        195.66746      712.33014    
     30500  -78855.553      458.2473      -78397.306      195.78853      195.649        712.63931    
     30600  -78829.274      450.43927     -78378.835      195.77134      195.63066      712.94849    
     30700  -78812.03       455.4283      -78356.601      195.75338      195.61246      713.25766    
     30800  -78789.573      459.69617     -78329.876      195.73632      195.59396      713.56683    
     30900  -78766.883      459.31063     -78307.572      195.71878      195.5764       713.876      
     31000  -78756.196      458.7334      -78297.463      195.7001       195.5594       714.18517    
     31100  -78738.576      456.49559     -78282.081      195.68334      195.5417       714.49434    
     31200  -78713.768      452.90844     -78260.86       195.6659       195.52449      714.80351    
     31300  -78693.165      458.27796     -78234.887      195.64814      195.5079       715.11268    
     31400  -78674.39       462.8666      -78211.524      195.63106      195.49077      715.42185    
     31500  -78650.054      454.85148     -78195.203      195.61434      195.47329      715.73103    
     31600  -78636.897      453.11776     -78183.78       195.59695      195.45681      716.0402     
     31700  -78614.19       450.62852     -78163.562      195.57966      195.44014      716.34937    
     31800  -78594.026      454.53881     -78139.487      195.5636       195.42312      716.65854    
     31900  -78568.41       453.5287      -78114.882      195.54651      195.40631      716.96771    
     32000  -78552.996      459.24697     -78093.749      195.5307       195.3897       717.27688    
     32100  -78532.209      449.74142     -78082.467      195.5148       195.3727       717.58605    
     32200  -78518.938      453.28028     -78065.658      195.49728      195.35667      717.89522    
     32300  -78491.875      452.30008     -78039.575      195.48141      195.34113      718.20439    
     32400  -78474.131      459.09732     -78015.034      195.46437      195.32445      718.51356    
     32500  -78451.329      456.89117     -77994.438      195.44768      195.30895      718.82274    
     32600  -78438.001      460.51635     -77977.485      195.43231      195.29308      719.13191    
     32700  -78415.802      449.09258     -77966.709      195.41592      195.27603      719.44108    
     32800  -78394.913      450.06656     -77944.846      195.40006      195.26114      719.75025    
     32900  -78372.638      453.77859     -77918.859      195.38386      195.24514      720.05942    
     33000  -78351.994      457.08058     -77894.914      195.36814      195.22864      720.36859    
     33100  -78322.8        450.28564     -77872.514      195.35241      195.21285      720.67776    
     33200  -78306.142      455.01199     -77851.13       195.33646      195.19666      720.98693    
     33300  -78289.311      456.08104     -77833.23       195.32068      195.18082      721.2961     
     33400  -78271.085      453.07477     -77818.01       195.30385      195.16606      721.60528    
     33500  -78249.689      453.38341     -77796.305      195.28762      195.15078      721.91445    
     33600  -78226.268      457.11012     -77769.158      195.27187      195.13431      722.22362    
     33700  -78204.013      459.16791     -77744.845      195.2563       195.11922      722.53279    
     33800  -78186.052      459.67377     -77726.378      195.24085      195.10281      722.84196    
     33900  -78174.417      457.42116     -77716.996      195.22568      195.08554      723.15113    
     34000  -78143.816      447.90926     -77695.907      195.21037      195.07098      723.4603     
     34100  -78125.158      455.70342     -77669.454      195.19345      195.05515      723.76947    
     34200  -78100.24       456.65913     -77643.581      195.17863      195.03963      724.07864    
     34300  -78083.792      461.06703     -77622.725      195.16299      195.02458      724.38782    
     34400  -78065.626      457.38855     -77608.237      195.1469       195.00822      724.69699    
     34500  -78042.908      449.25957     -77593.649      195.13232      194.99303      725.00616    
     34600  -78019.37       450.00299     -77569.367      195.11586      194.97765      725.31533    
     34700  -77998.368      454.72041     -77543.647      195.09967      194.96236      725.6245     
     34800  -77979.292      458.74649     -77520.545      195.08438      194.94758      725.93367    
     34900  -77957.804      457.35367     -77500.45       195.06825      194.9315       726.24284    
     35000  -77941.678      453.60581     -77488.072      195.05388      194.9151       726.55201    
     35100  -77916.713      447.23794     -77469.475      195.03899      194.89957      726.86118    
     35200  -77900.451      457.50438     -77442.947      195.02268      194.88377      727.17035    
     35300  -77871.457      454.17832     -77417.278      195.00771      194.86803      727.47953    
     35400  -77847.662      454.2535      -77393.409      194.99199      194.85294      727.7887     
     35500  -77832.463      461.21025     -77371.252      194.97478      194.83699      728.09787    
     35600  -77816.122      459.10859     -77357.014      194.96041      194.82096      728.40704    
     35700  -77794.802      452.74089     -77342.062      194.94432      194.80563      728.71621    
     35800  -77771.632      453.98711     -77317.645      194.92689      194.79044      729.02538    
     35900  -77747.429      457.39483     -77290.034      194.91333      194.77465      729.33455    
     36000  -77725.543      458.82324     -77266.72       194.8976       194.75708      729.64372    
     36100  -77707.675      459.95732     -77247.718      194.88164      194.74119      729.95289    
     36200  -77687.781      453.83946     -77233.942      194.86836      194.72427      730.26207    
     36300  -77670.216      454.72859     -77215.488      194.85178      194.70659      730.57124    
     36400  -77646.512      454.20686     -77192.305      194.83508      194.69282      730.88041    
     36500  -77621.493      456.34578     -77165.148      194.81953      194.67691      731.18958    
     36600  -77597.493      458.20329     -77139.289      194.80322      194.66009      731.49875    
     36700  -77578.046      460.08177     -77117.965      194.78741      194.64501      731.80792    
     36800  -77560.788      455.69964     -77105.088      194.77256      194.62768      732.11709    
     36900  -77537.23       451.43698     -77085.793      194.75735      194.6103       732.42626    
     37000  -77516.169      455.57495     -77060.594      194.74132      194.5954       732.73543    
     37100  -77488.886      455.01019     -77033.876      194.72565      194.57913      733.0446     
     37200  -77467          455.93871     -77011.062      194.70961      194.56255      733.35378    
     37300  -77454.687      457.06066     -76997.626      194.69429      194.5476       733.66295    
     37400  -77434.889      455.01162     -76979.878      194.67885      194.5301       733.97212    
     37500  -77405.421      451.52862     -76953.893      194.66273      194.5141       734.28129    
     37600  -77385.902      457.98495     -76927.917      194.64641      194.49999      734.59046    
     37700  -77364.987      458.28856     -76906.698      194.62938      194.48322      734.89963    
     37800  -77346.744      456.2614      -76890.483      194.61379      194.46784      735.2088     
     37900  -77325.103      449.07549     -76876.028      194.59798      194.45205      735.51797    
     38000  -77303.24       452.12161     -76851.119      194.58162      194.43484      735.82714    
     38100  -77275.802      457.45309     -76818.349      194.56641      194.41953      736.13632    
     38200  -77257.595      459.20635     -76798.388      194.5492       194.40356      736.44549    
     38300  -77236.165      454.60268     -76781.562      194.53364      194.38698      736.75466    
     38400  -77216.353      454.62808     -76761.725      194.51849      194.37035      737.06383    
     38500  -77194.411      457.61923     -76736.792      194.50202      194.35362      737.373      
     38600  -77164.828      455.24617     -76709.582      194.48691      194.33656      737.68217    
     38700  -77144.018      459.50854     -76684.509      194.47049      194.32084      737.99134    
     38800  -77122.187      455.73477     -76666.452      194.45195      194.30586      738.30051    
     38900  -77101.805      449.44045     -76652.365      194.43534      194.2901       738.60968    
     39000  -77084.914      454.54684     -76630.367      194.41915      194.27417      738.91886    
     39100  -77063.401      458.76155     -76604.639      194.40175      194.25679      739.22803    
     39200  -77039.951      462.93934     -76577.012      194.38694      194.2402       739.5372     
     39300  -77015.443      463.50568     -76551.937      194.37043      194.22296      739.84637    
     39400  -76994.384      455.60598     -76538.778      194.35241      194.20648      740.15554    
     39500  -76977.131      455.60409     -76521.527      194.33736      194.18976      740.46471    
     39600  -76958.566      458.4174      -76500.148      194.32017      194.17187      740.77388    
     39700  -76933.382      455.54484     -76477.838      194.30259      194.15591      741.08305    
     39800  -76907.958      456.98548     -76450.973      194.28657      194.13881      741.39222    
     39900  -76883.637      461.13099     -76422.506      194.2687       194.12159      741.70139    
     40000  -76863.539      459.74014     -76403.799      194.24986      194.10609      742.01057    
     40100  -76844.329      455.92832     -76388.4        194.23398      194.08886      742.31974    
     40200  -76819.173      452.28367     -76366.889      194.21583      194.0706       742.62891    
     40300  -76798.408      456.08068     -76342.328      194.19878      194.05438      742.93808    
     40400  -76775.721      459.69952     -76316.022      194.18296      194.03537      743.24725    
     40500  -76751.222      457.71794     -76293.504      194.16516      194.0169       743.55642    
     40600  -76741.497      461.03738     -76280.46       194.14739      194.00147      743.86559    
     40700  -76712.307      451.43705     -76260.87       194.12942      193.98255      744.17476    
     40800  -76691.016      455.03659     -76235.979      194.11199      193.96567      744.48393    
     40900  -76669.661      462.29223     -76207.368      194.09371      193.94854      744.79311    
     41000  -76643.43       459.95652     -76183.474      194.07636      193.9294       745.10228    
     41100  -76623.242      453.16906     -76170.073      194.05861      193.91195      745.41145    
     41200  -76603.728      453.51373     -76150.214      194.03943      193.89526      745.72062    
     41300  -76577.439      454.05641     -76123.382      194.02171      193.87609      746.02979    
     41400  -76550.355      454.23634     -76096.119      194.00355      193.85837      746.33896    
     41500  -76525.722      453.34445     -76072.378      193.98522      193.84059      746.64813    
     41600  -76511.189      453.53794     -76057.651      193.96744      193.82043      746.9573     
     41700  -76493.262      453.86782     -76039.395      193.94949      193.80323      747.26647    
     41800  -76464.749      451.14188     -76013.607      193.9299       193.78445      747.57565    
     41900  -76442.097      458.20421     -75983.893      193.91203      193.76538      747.88482    
     42000  -76420.608      461.18559     -75959.423      193.89282      193.74762      748.19399    
     42100  -76401.56       461.2091      -75940.351      193.87308      193.72833      748.50316    
     42200  -76374.8        451.45385     -75923.346      193.85606      193.7084       748.81233    
     42300  -76351.34       450.82881     -75900.512      193.83774      193.68857      749.1215     
     42400  -76330.443      454.76376     -75875.679      193.8183       193.66926      749.43067    
     42500  -76307.564      457.30503     -75850.259      193.79925      193.6504       749.73984    
     42600  -76284.589      456.7743      -75827.815      193.77929      193.632        750.04901    
     42700  -76266.451      454.66598     -75811.785      193.75922      193.61191      750.35818    
     42800  -76242.65       451.00282     -75791.647      193.74121      193.59275      750.66736    
     42900  -76221.861      456.13425     -75765.726      193.72201      193.57156      750.97653    
     43000  -76195.882      460.19787     -75735.684      193.70352      193.55115      751.2857     
     43100  -76165.37       460.50522     -75704.865      193.68471      193.53191      751.59487    
     43200  -76149.205      462.91911     -75686.286      193.66471      193.51137      751.90404    
     43300  -76124.379      457.31402     -75667.065      193.64494      193.49234      752.21321    
     43400  -76111.719      462.90053     -75648.819      193.62483      193.47348      752.52238    
     43500  -76088.229      456.02155     -75632.207      193.60434      193.45358      752.83155    
     43600  -76063.618      451.93989     -75611.678      193.58433      193.4342       753.14072    
     43700  -76041.974      457.32302     -75584.651      193.56477      193.41482      753.4499     
     43800  -76011.2        457.58853     -75553.612      193.54492      193.3941       753.75907    
     43900  -75985.604      455.18075     -75530.423      193.52456      193.37489      754.06824    
     44000  -75972.327      461.58813     -75510.739      193.50466      193.35517      754.37741    
     44100  -75946.75       457.59212     -75489.158      193.48522      193.33336      754.68658    
     44200  -75927.278      458.33606     -75468.942      193.46619      193.31301      754.99575    
     44300  -75902.33       452.73775     -75449.593      193.44598      193.29226      755.30492    
     44400  -75883.337      452.95043     -75430.387      193.42564      193.27214      755.61409    
     44500  -75858.91       449.79181     -75409.118      193.40464      193.25245      755.92326    
     44600  -75834.641      455.82838     -75378.812      193.38381      193.23306      756.23244    
     44700  -75807.088      457.43478     -75349.653      193.3625       193.21263      756.54161    
     44800  -75783.678      457.51838     -75326.16       193.34139      193.19327      756.85078    
     44900  -75762.391      454.12915     -75308.262      193.32124      193.17218      757.15995    
     45000  -75744.364      455.20929     -75289.154      193.30117      193.15061      757.46912    
     45100  -75722.888      458.38959     -75264.499      193.28087      193.12989      757.77829    
     45200  -75697.726      458.15788     -75239.568      193.26022      193.10833      758.08746    
     45300  -75676.061      459.9753      -75216.086      193.23936      193.08804      758.39663    
     45400  -75647.443      455.28893     -75192.154      193.21754      193.0675       758.7058     
     45500  -75624.893      456.27414     -75168.619      193.197        193.04628      759.01497    
     45600  -75602.854      453.65398     -75149.2        193.17601      193.02501      759.32415    
     45700  -75581.71       451.26336     -75130.447      193.15451      193.00414      759.63332    
     45800  -75561.563      455.1208      -75106.442      193.13317      192.98374      759.94249    
     45900  -75531.253      456.38823     -75074.865      193.11029      192.96304      760.25166    
     46000  -75509.28       462.6124      -75046.668      193.08974      192.94216      760.56083    
     46100  -75481.301      456.01269     -75025.289      193.06855      192.92026      760.87       
     46200  -75461.735      457.3904      -75004.345      193.04647      192.89813      761.17917    
     46300  -75439.171      457.11726     -74982.054      193.02638      192.87688      761.48834    
     46400  -75419.334      456.31104     -74963.023      193.00469      192.85397      761.79751    
     46500  -75394.157      452.55269     -74941.604      192.98269      192.83279      762.10669    
     46600  -75371.67       457.50517     -74914.165      192.96114      192.81195      762.41586    
     46700  -75339.694      458.61874     -74881.075      192.93836      192.79021      762.72503    
     46800  -75321.327      463.12054     -74858.206      192.91611      192.76876      763.0342     
     46900  -75296.352      457.51515     -74838.836      192.8956       192.74657      763.34337    
     47000  -75277.744      460.51655     -74817.227      192.87348      192.72316      763.65254    
     47100  -75254.493      458.80726     -74795.685      192.85164      192.7016       763.96171    
     47200  -75231.435      454.98981     -74776.446      192.82938      192.67995      764.27088    
     47300  -75208.598      452.38071     -74756.217      192.80561      192.65787      764.58005    
     47400  -75183.997      453.56478     -74730.432      192.78402      192.63685      764.88923    
     47500  -75153.285      459.5272      -74693.758      192.76172      192.61391      765.1984     
     47600  -75128.695      459.81384     -74668.881      192.7391       192.59109      765.50757    
     47700  -75108.362      455.95182     -74652.41       192.71782      192.56887      765.81674    
     47800  -75088.823      455.70019     -74633.123      192.69448      192.54628      766.12591    
     47900  -75063.235      452.96641     -74610.269      192.67206      192.52393      766.43508    
     48000  -75039.347      454.85485     -74584.492      192.65044      192.50082      766.74425    
     48100  -75015.298      456.67694     -74558.621      192.62711      192.47827      767.05342    
     48200  -74993.581      456.76297     -74536.818      192.60445      192.45513      767.36259    
     48300  -74966.678      449.16992     -74517.508      192.58343      192.43203      767.67176    
     48400  -74943.942      449.56181     -74494.38       192.55922      192.40824      767.98094    
     48500  -74923.978      455.52281     -74468.455      192.53757      192.38585      768.29011    
     48600  -74900.985      463.38041     -74437.604      192.51428      192.36306      768.59928    
     48700  -74867.99       458.23724     -74409.753      192.48998      192.34098      768.90845    
     48800  -74851.476      459.55611     -74391.92       192.46807      192.31762      769.21762    
     48900  -74828.71       456.4584      -74372.252      192.44551      192.29365      769.52679    
     49000  -74809.644      460.68187     -74348.962      192.42307      192.27018      769.83596    
     49100  -74778.426      452.76249     -74325.664      192.40054      192.24579      770.14513    
     49200  -74758.253      452.90031     -74305.353      192.3784       192.22298      770.4543     
     49300  -74737.511      450.88057     -74286.631      192.35448      192.19994      770.76348    
     49400  -74713.973      454.81254     -74259.161      192.33174      192.17774      771.07265    
     49500  -74684.259      459.44711     -74224.812      192.30855      192.15466      771.38182    
     49600  -74659.171      459.63862     -74199.533      192.28532      192.13177      771.69099    
     49700  -74635.867      456.09707     -74179.77       192.26274      192.10852      772.00016    
     49800  -74610.205      451.50253     -74158.703      192.23991      192.08522      772.30933    
     49900  -74589.298      456.53962     -74132.758      192.21674      192.06253      772.6185     
     50000  -74560.68       458.23942     -74102.441      192.1939       192.03943      772.92767    
     50100  -74533.586      463.33702     -74070.249      192.17069      192.01733      773.23684    
     50200  -74513.19       461.82363     -74051.366      192.14666      191.99359      773.54602    
     50300  -74492.961      460.17486     -74032.786      192.12567      191.97078      773.85519    
     50400  -74467.145      455.84682     -74011.299      192.10175      191.94673      774.16436    
     50500  -74445.524      456.1175      -73989.407      192.07912      191.924        774.47353    
     50600  -74421.138      455.04362     -73966.095      192.05714      191.9007       774.7827     
     50700  -74395.98       454.89207     -73941.088      192.0322       191.87808      775.09187    
     50800  -74370.552      458.26231     -73912.29       192.00911      191.85618      775.40104    
     50900  -74339.807      455.46413     -73884.343      191.98661      191.83227      775.71021    
     51000  -74321.311      458.94118     -73862.369      191.96278      191.80964      776.01938    
     51100  -74300.419      457.57401     -73842.845      191.94034      191.78579      776.32855    
     51200  -74271.663      452.50496     -73819.158      191.91867      191.76192      776.63773    
     51300  -74246.056      452.39096     -73793.665      191.89436      191.73902      776.9469     
     51400  -74221.435      454.25213     -73767.183      191.87151      191.71718      777.25607    
     51500  -74197.067      456.22816     -73740.839      191.84769      191.69392      777.56524    
     51600  -74170.119      452.50505     -73717.614      191.82362      191.67204      777.87441    
     51700  -74149.088      452.98092     -73696.107      191.80106      191.64908      778.18358    
     51800  -74126.576      453.31191     -73673.264      191.77829      191.62471      778.49275    
     51900  -74105.844      455.60599     -73650.238      191.75558      191.60173      778.80192    
     52000  -74079.844      449.11785     -73630.726      191.73305      191.578        779.11109    
     52100  -74058.796      451.90823     -73606.888      191.70979      191.55528      779.42027    
     52200  -74024.15       452.78509     -73571.365      191.68602      191.5321       779.72944    
     52300  -74003.486      462.20267     -73541.283      191.66431      191.50899      780.03861    
     52400  -73974.017      456.7663      -73517.251      191.64027      191.48595      780.34778    
     52500  -73954.921      457.92739     -73496.993      191.61648      191.46334      780.65695    
     52600  -73927.553      454.16205     -73473.391      191.59421      191.43996      780.96612    
     52700  -73907.362      459.80108     -73447.561      191.57006      191.41735      781.27529    
     52800  -73880.671      458.50472     -73422.166      191.54661      191.39447      781.58446    
     52900  -73858.621      454.29211     -73404.329      191.52425      191.37118      781.89363    
     53000  -73832.39       452.14474     -73380.246      191.49985      191.34875      782.2028     
     53100  -73802.453      453.93416     -73348.518      191.47727      191.32534      782.51198    
     53200  -73775.729      458.61941     -73317.109      191.45622      191.30039      782.82115    
     53300  -73750.063      458.09026     -73291.973      191.4327       191.27692      783.13032    
     53400  -73732.897      458.15805     -73274.739      191.4097       191.25432      783.43949    
     53500  -73701.516      453.71191     -73247.804      191.38698      191.23073      783.74866    
     53600  -73675.052      454.65166     -73220.4        191.362        191.20919      784.05783    
     53700  -73654.096      459.00037     -73195.096      191.33857      191.18721      784.367      
     53800  -73626.316      452.61191     -73173.704      191.31684      191.16259      784.67617    
     53900  -73604.676      454.81738     -73149.859      191.29265      191.13986      784.98534    
     54000  -73574.526      452.639       -73121.887      191.26996      191.11707      785.29452    
     54100  -73552.433      460.98935     -73091.444      191.2478       191.0927       785.60369    
     54200  -73517.914      460.8915      -73057.022      191.22354      191.07049      785.91286    
     54300  -73496.48       462.02959     -73034.45       191.20155      191.04698      786.22203    
     54400  -73469.941      455.82405     -73014.117      191.17917      191.02248      786.5312     
     54500  -73452.465      460.74277     -72991.722      191.15551      191.00016      786.84037    
     54600  -73428.015      459.21299     -72968.802      191.13392      190.9755       787.14954    
     54700  -73396.688      453.06797     -72943.62       191.11133      190.95169      787.45871    
     54800  -73370.756      452.61686     -72918.139      191.08727      190.9298       787.76788    
     54900  -73348.663      450.8913      -72897.772      191.06481      190.90678      788.07706    
     55000  -73323.015      449.79912     -72873.215      191.0408       190.88451      788.38623    
     55100  -73293.295      453.74588     -72839.55       191.01698      190.86268      788.6954     
     55200  -73265.839      458.39829     -72807.441      190.99608      190.83801      789.00457    
     55300  -73242.821      461.71216     -72781.109      190.97362      190.81464      789.31374    
     55400  -73218.958      461.26359     -72757.694      190.95063      190.79205      789.62291    
     55500  -73190.142      455.54463     -72734.598      190.92962      190.76851      789.93208    
     55600  -73166.99       458.25587     -72708.734      190.90551      190.74641      790.24125    
     55700  -73138.413      456.04624     -72682.366      190.88265      190.72422      790.55042    
     55800  -73113.555      453.86541     -72659.69       190.86106      190.70142      790.85959    
     55900  -73091.361      453.13857     -72638.222      190.8374       190.67905      791.16877    
     56000  -73061.855      455.11206     -72606.743      190.81571      190.65608      791.47794    
     56100  -73032.317      457.98853     -72574.329      190.79437      190.63238      791.78711    
     56200  -72996.662      452.42706     -72544.235      190.77052      190.61046      792.09628    
     56300  -72981.748      458.72837     -72523.019      190.74817      190.58886      792.40545    
     56400  -72955.375      455.69358     -72499.682      190.72576      190.56581      792.71462    
     56500  -72924.049      454.17154     -72469.878      190.70213      190.54436      793.02379    
     56600  -72899.661      460.12473     -72439.536      190.68037      190.52191      793.33296    
     56700  -72869.427      457.78103     -72411.646      190.65848      190.49864      793.64213    
     56800  -72848.411      459.51318     -72388.898      190.63533      190.47726      793.95131    
     56900  -72816.829      453.19697     -72363.632      190.61372      190.45479      794.26048    
     57000  -72788.593      453.68802     -72334.905      190.59201      190.43217      794.56965    
     57100  -72762.532      456.71838     -72305.814      190.56879      190.41052      794.87882    
     57200  -72740.77       460.32765     -72280.442      190.54774      190.38785      795.18799    
     57300  -72713.903      455.69427     -72258.209      190.52569      190.3651       795.49716    
     57400  -72681.481      451.80137     -72229.68       190.50309      190.34357      795.80633    
     57500  -72654.68       458.10189     -72196.578      190.48211      190.32059      796.1155     
     57600  -72620.081      460.69903     -72159.382      190.45987      190.29898      796.42467    
     57700  -72589.214      458.8143      -72130.399      190.43617      190.27801      796.73385    
     57800  -72570.899      460.59003     -72110.308      190.41392      190.25643      797.04302    
     57900  -72538.581      455.77044     -72082.811      190.39093      190.23554      797.35219    
     58000  -72512.099      455.18928     -72056.909      190.36864      190.2132       797.66136    
     58100  -72491.615      460.88079     -72030.734      190.34796      190.19054      797.97053    
     58200  -72459.495      455.40674     -72004.088      190.32547      190.1686       798.2797     
     58300  -72427.639      451.4291      -71976.209      190.3039       190.14612      798.58887    
     58400  -72401.441      450.80871     -71950.632      190.28271      190.12383      798.89804    
     58500  -72376.784      453.60987     -71923.175      190.26042      190.10163      799.20721    
     58600  -72348.995      460.28702     -71888.708      190.23904      190.07962      799.51638    
     58700  -72310.839      460.83568     -71850.004      190.21724      190.05709      799.82556    
     58800  -72280.245      459.83687     -71820.408      190.19506      190.03568      800.13473    
     58900  -72254.761      459.29908     -71795.462      190.17353      190.01365      800.4439     
     59000  -72228.198      460.75847     -71767.44       190.15111      189.99211      800.75307    
     59100  -72198.067      456.46964     -71741.597      190.12795      189.97172      801.06224    
     59200  -72173.595      458.97935     -71714.616      190.10632      189.94985      801.37141    
     59300  -72140.506      455.22112     -71685.285      190.08433      189.92809      801.68058    
     59400  -72113.234      457.43409     -71655.8        190.06235      189.9065       801.98975    
     59500  -72083.567      451.49792     -71632.069      190.04153      189.88391      802.29892    
     59600  -72058.362      455.04192     -71603.32       190.02016      189.86172      802.6081     
     59700  -72021.526      455.36792     -71566.158      189.9992       189.8388       802.91727    
     59800  -71993.574      463.96198     -71529.612      189.97856      189.81651      803.22644    
     59900  -71955.226      456.24551     -71498.98       189.95615      189.79512      803.53561    
     60000  -71927.781      457.96476     -71469.817      189.93373      189.77337      803.84478    
     60100  -71897.513      455.84553     -71441.667      189.91252      189.75242      804.15395    
     60200  -71872.544      458.25044     -71414.294      189.88993      189.73085      804.46312    
     60300  -71836.323      451.40937     -71384.913      189.86852      189.70876      804.77229    
     60400  -71809.209      455.79136     -71353.417      189.84766      189.68748      805.08146    
     60500  -71778.872      456.442       -71322.43       189.82482      189.66599      805.39064    
     60600  -71753.951      454.11207     -71299.839      189.80375      189.6444       805.69981    
     60700  -71722.319      454.28321     -71268.036      189.78291      189.62297      806.00898    
     60800  -71687.876      457.17518     -71230.7        189.76151      189.60073      806.31815    
     60900  -71652.461      458.83814     -71193.623      189.74095      189.57876      806.62732    
     61000  -71621.851      457.19202     -71164.659      189.71987      189.55733      806.93649    
     61100  -71595.302      456.87514     -71138.427      189.69778      189.53601      807.24566    
     61200  -71563.117      456.36046     -71106.757      189.67701      189.51448      807.55483    
     61300  -71527.189      451.666       -71075.523      189.65561      189.49385      807.864      
     61400  -71503.015      455.88418     -71047.131      189.63377      189.47303      808.17317    
     61500  -71473.815      456.25763     -71017.557      189.61294      189.45169      808.48235    
     61600  -71440.642      456.99673     -70983.645      189.59167      189.43037      808.79152    
     61700  -71409.632      457.25828     -70952.374      189.57074      189.40889      809.10069    
     61800  -71374.667      453.44769     -70921.219      189.54945      189.38779      809.40986    
     61900  -71339.433      453.2222      -70886.21       189.52808      189.36737      809.71903    
     62000  -71307.295      455.40242     -70851.892      189.5073       189.34576      810.0282     
     62100  -71275.302      454.50525     -70820.797      189.48642      189.32461      810.33737    
     62200  -71246.754      455.14646     -70791.608      189.46476      189.30505      810.64654    
     62300  -71213.968      455.02768     -70758.94       189.44357      189.28344      810.95571    
     62400  -71180.452      455.33626     -70725.115      189.42336      189.26232      811.26489    
     62500  -71146.051      455.78501     -70690.266      189.40278      189.24138      811.57406    
     62600  -71112.705      457.11546     -70655.59       189.38177      189.21948      811.88323    
     62700  -71076.925      456.29502     -70620.63       189.36134      189.20011      812.1924     
     62800  -71048.452      458.81909     -70589.633      189.33989      189.17931      812.50157    
     62900  -71015.355      455.4346      -70559.921      189.31917      189.15774      812.81074    
     63000  -70977.513      452.56119     -70524.952      189.29878      189.13794      813.11991    
     63100  -70941.812      454.87807     -70486.934      189.27696      189.11706      813.42908    
     63200  -70904.012      457.9227      -70446.09       189.25616      189.09664      813.73825    
     63300  -70874.531      466.56749     -70407.964      189.23531      189.07685      814.04743    
     63400  -70837.383      456.58398     -70380.799      189.21415      189.05627      814.3566     
     63500  -70805.382      455.55232     -70349.829      189.19348      189.03513      814.66577    
     63600  -70771.962      453.79632     -70318.166      189.17262      189.01556      814.97494    
     63700  -70743.847      458.75379     -70285.093      189.15194      188.99386      815.28411    
     63800  -70702.616      451.28975     -70251.326      189.132        188.97237      815.59328    
     63900  -70674.403      454.4348      -70219.968      189.11159      188.95237      815.90245    
     64000  -70641.427      453.34794     -70188.079      189.09154      188.93052      816.21162    
     64100  -70601.663      452.75171     -70148.911      189.071        188.90935      816.52079    
     64200  -70557.515      457.7035      -70099.812      189.0499       188.89081      816.82996    
     64300  -70524.364      462.78102     -70061.583      189.02914      188.8694       817.13914    
     64400  -70495.915      464.29705     -70031.618      189.00812      188.8492       817.44831    
     64500  -70462.27       462.51012     -69999.76       188.987        188.83013      817.75748    
     64600  -70419.057      452.44596     -69966.611      188.96701      188.80851      818.06665    
     64700  -70385.659      452.63844     -69933.021      188.9458       188.78788      818.37582    
     64800  -70349.409      451.72725     -69897.682      188.9257       188.7682       818.68499    
     64900  -70318.37       456.6665      -69861.704      188.90661      188.74605      818.99416    
     65000  -70285.435      456.21906     -69829.216      188.88507      188.72596      819.30333    
     65100  -70246.27       450.54083     -69795.729      188.86545      188.70561      819.6125     
     65200  -70210.031      455.37768     -69754.654      188.84608      188.68355      819.92168    
     65300  -70169.233      454.80068     -69714.432      188.82412      188.6639       820.23085    
     65400  -70130.959      455.67019     -69675.289      188.80438      188.64435      820.54002    
     65500  -70101.051      456.21184     -69644.84       188.78359      188.62297      820.84919    
     65600  -70066.936      459.1471      -69607.789      188.76303      188.60347      821.15836    
     65700  -70026.416      456.83756     -69569.578      188.74371      188.58208      821.46753    
     65800  -69985.68       452.52081     -69533.159      188.72277      188.56197      821.7767     
     65900  -69958.77       461.75175     -69497.018      188.70132      188.54262      822.08587    
     66000  -69916.955      457.47618     -69459.478      188.68297      188.52073      822.39504    
     66100  -69878.701      453.32002     -69425.381      188.663        188.5005       822.70422    
     66200  -69844.174      451.37203     -69392.802      188.64182      188.48033      823.01339    
     66300  -69800.299      453.56093     -69346.738      188.62291      188.45998      823.32256    
     66400  -69764.158      463.74632     -69300.412      188.60168      188.44007      823.63173    
     66500  -69720.059      459.69351     -69260.366      188.58162      188.41955      823.9409     
     66600  -69687.02       460.51487     -69226.505      188.56273      188.39958      824.25007    
     66700  -69644.789      454.93464     -69189.855      188.54076      188.38042      824.55924    
     66800  -69617.439      464.08854     -69153.351      188.52088      188.36046      824.86841    
     66900  -69572.067      456.57614     -69115.491      188.50194      188.33978      825.17758    
     67000  -69534.773      458.05949     -69076.713      188.48102      188.32034      825.48675    
     67100  -69494.725      457.1105      -69037.614      188.46211      188.29934      825.79593    
     67200  -69454.188      456.45023     -68997.738      188.44286      188.27868      826.1051     
     67300  -69414.687      458.3492      -68956.338      188.42193      188.26         826.41427    
     67400  -69371.204      455.20604     -68915.998      188.40262      188.23854      826.72344    
     67500  -69332.746      456.18235     -68876.564      188.38225      188.22011      827.03261    
     67600  -69297.756      461.59935     -68836.157      188.36146      188.20146      827.34178    
     67700  -69256.3        459.18209     -68797.117      188.34198      188.18021      827.65095    
     67800  -69215.937      458.71751     -68757.219      188.3218       188.16201      827.96012    
     67900  -69177.283      459.74173     -68717.541      188.30141      188.14233      828.26929    
     68000  -69133.789      456.82049     -68676.968      188.28255      188.12136      828.57847    
     68100  -69093.001      455.97787     -68637.023      188.26276      188.10218      828.88764    
     68200  -69058.302      462.00756     -68596.295      188.24325      188.08195      829.19681    
     68300  -69014.592      459.39122     -68555.201      188.22403      188.06217      829.50598    
     68400  -68969.914      458.27703     -68511.637      188.20367      188.04221      829.81515    
     68500  -68929.969      459.91891     -68470.05       188.18447      188.02262      830.12432    
     68600  -68894.196      464.94481     -68429.252      188.16455      188.00293      830.43349    
     68700  -68856.844      467.37735     -68389.467      188.14426      187.98359      830.74266    
     68800  -68808.46       458.00097     -68350.459      188.12454      187.96451      831.05183    
     68900  -68775          466.64617     -68308.354      188.10372      187.94545      831.361      
     69000  -68728.431      462.82316     -68265.608      188.08321      187.9266       831.67018    
     69100  -68681.217      457.44683     -68223.77       188.06384      187.90601      831.97935    
     69200  -68647.085      464.5659      -68182.519      188.0456       187.8864       832.28852    
     69300  -68602.275      462.94172     -68139.333      188.02589      187.86545      832.59769    
     69400  -68558.965      461.93772     -68097.027      188.00678      187.84577      832.90686    
     69500  -68519.601      466.76338     -68052.838      187.98746      187.82633      833.21603    
     69600  -68468.498      456.4659      -68012.032      187.96866      187.80565      833.5252     
     69700  -68431.526      461.25215     -67970.274      187.94858      187.78592      833.83437    
     69800  -68384.291      457.64549     -67926.646      187.92821      187.76802      834.14354    
     69900  -68345.487      461.04377     -67884.443      187.90794      187.74907      834.45272    
     70000  -68300.789      461.86816     -67838.921      187.88777      187.72899      834.76189    
     70100  -68258.334      462.84419     -67795.49       187.86858      187.71001      835.07106    
     70200  -68215.218      464.56479     -67750.654      187.84904      187.69062      835.38023    
     70300  -68167.891      463.0632      -67704.828      187.82871      187.67062      835.6894     
     70400  -68127.877      465.24002     -67662.637      187.80977      187.65118      835.99857    
     70500  -68083.077      464.7311      -67618.346      187.79096      187.6307       836.30774    
     70600  -68039.648      465.46271     -67574.186      187.77173      187.61038      836.61691    
     70700  -67996.663      466.0416      -67530.621      187.75261      187.59038      836.92608    
     70800  -67946.061      459.38988     -67486.671      187.73391      187.57086      837.23526    
     70900  -67910.532      465.77723     -67444.755      187.71387      187.55075      837.54443    
     71000  -67865.996      468.2371      -67397.759      187.69318      187.53211      837.8536     
     71100  -67818.258      465.87262     -67352.385      187.67425      187.51376      838.16277    
     71200  -67775.167      466.13933     -67309.028      187.65425      187.49372      838.47194    
     71300  -67725.086      459.58561     -67265.501      187.63415      187.4747       838.78111    
     71400  -67686.057      468.12198     -67217.935      187.61522      187.45525      839.09028    
     71500  -67638.652      466.82098     -67171.831      187.59592      187.43542      839.39945    
     71600  -67585.558      461.41384     -67124.145      187.57663      187.41557      839.70862    
     71700  -67547.46       469.92879     -67077.531      187.55783      187.39567      840.01779    
     71800  -67494.905      464.59394     -67030.311      187.53802      187.37658      840.32697    
     71900  -67450.797      468.07725     -66982.72       187.51843      187.35734      840.63614    
     72000  -67404.3        468.1845      -66936.115      187.49884      187.33763      840.94531    
     72100  -67357.544      468.54818     -66888.996      187.47948      187.31863      841.25448    
     72200  -67312.368      472.86448     -66839.503      187.46079      187.2988       841.56365    
     72300  -67264.623      472.49058     -66792.132      187.44064      187.27942      841.87282    
     72400  -67218.986      473.1031      -66745.883      187.42132      187.2603       842.18199    
     72500  -67168.136      471.01904     -66697.116      187.40186      187.24131      842.49116    
     72600  -67123.929      472.48293     -66651.446      187.38209      187.22185      842.80033    
     72700  -67074.746      467.21912     -66607.526      187.36315      187.2024       843.10951    
     72800  -67066.377      505.81047     -66560.566      187.34336      187.18326      843.41868    
[...]
     81600  -82806.271      446.77052     -82359.5        187.29804      186.27898      870.62573    
     81700  -82852.507      451.59654     -82400.911      187.35416      186.2786       870.9349     
     81800  -82898.388      465.24893     -82433.139      187.41679      186.27941      871.24407    
     81900  -82942.654      463.26995     -82479.384      187.48795      186.28013      871.55324    
     82000  -82983.846      458.573       -82525.273      187.56197      186.28351      871.86242    
     82100  -82999.559      436.92042     -82562.639      187.64133      186.28918      872.17159    
     82200  -83021.905      451.07806     -82570.827      187.72585      186.29537      872.48076    
     82300  -83020.636      455.0552      -82565.581      187.81745      186.30267      872.78993    
     82400  -83008.035      451.92424     -82556.111      187.9097       186.31277      873.0991     
     82500  -82997.07       455.96947     -82541.1        188.00299      186.32563      873.40827    
     82600  -82967.302      444.47836     -82522.823      188.10446      186.33812      873.71744    
     82700  -82929.951      440.20762     -82489.743      188.20106      186.34858      874.02661    
     82800  -82901.578      465.49356     -82436.085      188.30035      186.36259      874.33578    
     82900  -82872.389      474.52897     -82397.86       188.40374      186.37755      874.64495    
     83000  -82841.553      541.15905     -82300.394      188.5051       186.39634      874.95413    
     83100  -82844.87       461.83251     -82383.038      188.61049      186.41774      875.2633     
     83200  -82883.562      439.58733     -82443.974      188.71264      186.43668      875.57247    
     83300  -82918.527      451.20418     -82467.323      188.8084       186.45427      875.88164    
     83400  -82953.06       470.65036     -82482.41       188.89443      186.47308      876.19081    
     83500  -82992.909      468.03318     -82524.876      188.97221      186.48583      876.49998    
     83600  -83021.61       444.70599     -82576.904      189.04631      186.49467      876.80915    
     83700  -83046.04       441.47523     -82604.564      189.11544      186.50417      877.11832    
     83800  -83065.495      452.80028     -82612.695      189.18134      186.51217      877.42749    
     83900  -83068.074      450.27349     -82617.8        189.24589      186.52003      877.73667    
     84000  -83061.429      448.93324     -82612.496      189.30716      186.52915      878.04584    
     84100  -83041.432      449.00682     -82592.425      189.369        186.53978      878.35501    
     84200  -83007.406      448.11568     -82559.29       189.43342      186.54802      878.66418    
     84300  -82974.239      459.91022     -82514.329      189.50057      186.55852      878.97335    
     84400  -82944.223      462.84623     -82481.377      189.57408      186.57039      879.28252    
     84500  -82923.714      460.34476     -82463.369      189.654        186.58144      879.59169    
     84600  -82913.769      461.48882     -82452.28       189.73526      186.59595      879.90086    
     84700  -82930.799      477.5302      -82453.269      189.82078      186.61424      880.21003    
     84800  -82963.814      468.21112     -82495.603      189.91157      186.63265      880.5192     
     84900  -82985.355      437.38663     -82547.968      190.00485      186.65027      880.82838    
     85000  -83001.235      438.5351      -82562.7        190.09566      186.66857      881.13755    
     85100  -82997.464      454.88009     -82542.584      190.187        186.68702      881.44672    
     85200  -82981.432      462.70106     -82518.731      190.27622      186.70141      881.75589    
     85300  -82972.293      461.34059     -82510.952      190.3593       186.71407      882.06506    
     85400  -82970.716      455.6863      -82515.03       190.43674      186.72599      882.37423    
     85500  -82975.942      456.65908     -82519.283      190.51066      186.73052      882.6834     
     85600  -82983.612      460.79605     -82522.816      190.57265      186.7367       882.99257    
     85700  -83003.981      466.78129     -82537.2        190.62322      186.7472       883.30174    
     85800  -83023.278      455.68964     -82567.589      190.6689       186.75411      883.61092    
     85900  -83034.678      442.49473     -82592.184      190.70532      186.75674      883.92009    
     86000  -83043.405      446.874       -82596.531      190.73013      186.76156      884.22926    
     86100  -83036.558      456.58037     -82579.977      190.74638      186.76809      884.53843    
     86200  -83035.174      469.78702     -82565.387      190.75923      186.76873      884.8476     
     86300  -83049.072      468.88681     -82580.185      190.76668      186.76848      885.15677    
     86400  -83057.929      449.71018     -82608.219      190.77166      186.76712      885.46594    
     86500  -83066.17       444.84395     -82621.327      190.77926      186.75853      885.77511    
     86600  -83064.471      454.24783     -82610.223      190.78348      186.75328      886.08428    
     86700  -83067.591      470.25909     -82597.332      190.78266      186.75367      886.39346    
     86800  -83077.324      465.96374     -82611.36       190.78721      186.75197      886.70263    
     86900  -83091.087      452.28923     -82638.798      190.79784      186.7516       887.0118     
     87000  -83093.688      437.86007     -82655.828      190.80836      186.75522      887.32097    
     87100  -83085.37       444.66357     -82640.706      190.82386      186.76091      887.63014    
     87200  -83069.507      466.74475     -82602.762      190.84455      186.76653      887.93931    
     87300  -83056.417      472.91258     -82583.505      190.87117      186.77366      888.24848    
     87400  -83047.671      453.38889     -82594.282      190.89772      186.78105      888.55765    
     87500  -83037.715      437.67168     -82600.043      190.92412      186.78922      888.86682    
     87600  -83033          453.45609     -82579.544      190.94864      186.79996      889.17599    
     87700  -83024.811      469.21396     -82555.597      190.96769      186.81006      889.48517    
     87800  -83024.325      471.18393     -82553.141      190.98789      186.82161      889.79434    
     87900  -83041.297      463.27676     -82578.021      191.00372      186.83394      890.10351    
     88000  -83052.552      443.0881      -82609.464      191.01497      186.84637      890.41268    
     88100  -83056.579      441.06561     -82615.513      191.03355      186.85682      890.72185    
     88200  -83058.121      463.49284     -82594.628      191.05653      186.86269      891.03102    
     88300  -83056.733      472.37123     -82584.361      191.08309      186.86729      891.34019    
     88400  -83062.799      462.33143     -82600.467      191.11764      186.87256      891.64936    
     88500  -83069.787      444.54609     -82625.241      191.15973      186.8752       891.95853    
     88600  -83078.124      445.43163     -82632.692      191.20692      186.88128      892.26771    
     88700  -83078.941      457.95579     -82620.985      191.25824      186.8905       892.57688    
     88800  -83076.531      463.70903     -82612.822      191.31378      186.89931      892.88605    
     88900  -83076.845      456.65748     -82620.188      191.36966      186.91345      893.19522    
     89000  -83074.347      444.26497     -82630.082      191.42187      186.93027      893.50439    
     89100  -83071.35       451.61365     -82619.736      191.4761       186.94569      893.81356    
     89200  -83066.168      465.61387     -82600.554      191.53316      186.95786      894.12273    
     89300  -83067.262      465.47495     -82601.787      191.58932      186.96913      894.4319     
     89400  -83068.407      451.43246     -82616.975      191.64461      186.98104      894.74107    
     89500  -83068.037      443.80454     -82624.232      191.70057      186.99126      895.05025    
     89600  -83058.117      447.80517     -82610.312      191.7575       186.99905      895.35942    
     89700  -83047.301      462.0624      -82585.238      191.81718      187.00841      895.66859    
     89800  -83034.808      460.62104     -82574.187      191.87582      187.0177       895.97776    
     89900  -83032.802      455.80718     -82576.994      191.93676      187.02606      896.28693    
     90000  -83027.889      449.11679     -82578.772      191.9967       187.03505      896.5961     
     90100  -83024.783      455.11478     -82569.668      192.04876      187.04652      896.90527    
     90200  -83010.969      456.76012     -82554.209      192.0979       187.05742      897.21444    
     90300  -82998.459      457.48417     -82540.975      192.14415      187.06776      897.52361    
     90400  -82990.466      457.67331     -82532.793      192.19256      187.08284      897.83278    
     90500  -82977.39       450.79481     -82526.595      192.24195      187.09849      898.14196    
     90600  -82971.618      459.00364     -82512.614      192.29331      187.1119       898.45113    
     90700  -82971.785      470.59458     -82501.191      192.34455      187.1242       898.7603     
     90800  -82971.876      461.76945     -82510.107      192.3939       187.13983      899.06947    
     90900  -82978.365      450.41002     -82527.955      192.44451      187.15259      899.37864    
     91000  -82981.74       448.197       -82533.543      192.49382      187.16672      899.68781    
     91100  -82983.313      458.80824     -82524.505      192.54113      187.18563      899.99698    
     91200  -82993.786      470.47156     -82523.315      192.59237      187.20386      900.30615    
     91300  -82999.717      457.8213      -82541.896      192.65114      187.21847      900.61532    
     91400  -83004.878      445.12086     -82559.757      192.71375      187.23313      900.9245     
     91500  -83008.277      450.92924     -82557.348      192.77685      187.24614      901.23367    
     91600  -83007.888      462.39215     -82545.496      192.84474      187.25563      901.54284    
     91700  -83019.334      467.94258     -82551.392      192.91215      187.2641       901.85201    
     91800  -83030.827      454.22303     -82576.604      192.97397      187.27662      902.16118    
     91900  -83039.636      443.5742      -82596.061      193.03836      187.29026      902.47035    
     92000  -83043.765      451.79443     -82591.971      193.10872      187.30289      902.77952    
     92100  -83044.861      466.1073      -82578.754      193.17791      187.31542      903.08869    
     92200  -83054.025      470.81577     -82583.209      193.24743      187.32856      903.39786    
     92300  -83059.861      449.90171     -82609.959      193.32223      187.34021      903.70704    
     92400  -83076.433      447.13902     -82629.294      193.39873      187.34783      904.01621    
     92500  -83083.087      452.41426     -82630.673      193.48018      187.3562       904.32538    
     92600  -83081.919      459.26717     -82622.651      193.56718      187.36045      904.63455    
     92700  -83083.04       463.84475     -82619.195      193.65681      187.36301      904.94372    
     92800  -83085.682      460.22472     -82625.457      193.74709      187.36941      905.25289    
     92900  -83083.168      446.99188     -82636.176      193.83758      187.37742      905.56206    
     93000  -83073.776      443.91814     -82629.858      193.92729      187.38305      905.87123    
     93100  -83060.348      456.31141     -82604.037      194.01557      187.38972      906.1804     
     93200  -83046.655      465.96441     -82580.69       194.10043      187.39509      906.48957    
     93300  -83036.307      461.10447     -82575.203      194.18057      187.40171      906.79875    
     93400  -83025.221      446.84047     -82578.38       194.25546      187.40882      907.10792    
     93500  -83023.887      452.53709     -82571.35       194.32568      187.4125       907.41709    
     93600  -83018.257      463.6953      -82554.561      194.38738      187.41891      907.72626    
     93700  -83005.757      460.85471     -82544.903      194.43944      187.42245      908.03543    
     93800  -83000.114      455.99292     -82544.121      194.48663      187.42524      908.3446     
     93900  -82998.92       455.10822     -82543.811      194.52844      187.42845      908.65377    
     94000  -82998.68       457.19182     -82541.488      194.56224      187.43301      908.96294    
     94100  -82998.325      457.39258     -82540.933      194.5892       187.44072      909.27211    
     94200  -83005.393      461.00214     -82544.391      194.61041      187.45072      909.58129    
     94300  -83016.788      460.64734     -82556.141      194.62732      187.461        909.89046    
     94400  -83021.705      450.95138     -82570.754      194.63808      187.47862      910.19963    
     94500  -83020.852      448.15718     -82572.695      194.64493      187.49864      910.5088     
     94600  -83013.816      456.17869     -82557.637      194.65132      187.51967      910.81797    
     94700  -83008.441      467.38126     -82541.06       194.65304      187.54419      911.12714    
     94800  -83011.181      465.60625     -82545.575      194.65124      187.56984      911.43631    
     94900  -83027.414      453.535       -82573.879      194.64816      187.59285      911.74548    
     95000  -83037.832      440.15283     -82597.679      194.64517      187.61359      912.05465    
     95100  -83044.617      447.29441     -82597.322      194.64215      187.63558      912.36383    
     95200  -83041.069      459.92898     -82581.14       194.63804      187.65525      912.673      
     95300  -83037.194      464.01387     -82573.18       194.63199      187.67542      912.98217    
     95400  -83042.429      459.12485     -82583.304      194.62226      187.69191      913.29134    
     95500  -83049.861      452.03191     -82597.829      194.61382      187.70263      913.60051    
     95600  -83049.247      445.5355      -82603.712      194.60393      187.70654      913.90968    
     95700  -83058.455      460.22044     -82598.235      194.5913       187.70816      914.21885    
     95800  -83055.239      459.22152     -82596.017      194.57323      187.70781      914.52802    
     95900  -83063.047      458.24481     -82604.802      194.55228      187.70688      914.83719    
     96000  -83066.49       448.35357     -82618.136      194.53317      187.70489      915.14636    
     96100  -83073.067      450.05421     -82623.012      194.51808      187.70152      915.45554    
     96200  -83077.305      458.31482     -82618.99       194.508        187.70148      915.76471    
     96300  -83083.683      464.49495     -82619.188      194.50337      187.70523      916.07388    
     96400  -83080.377      451.7795      -82628.597      194.50794      187.70894      916.38305    
     96500  -83078.874      447.4447      -82631.43       194.52067      187.71344      916.69222    
     96600  -83069.684      453.2256      -82616.459      194.53596      187.72623      917.00139    
     96700  -83062.095      465.26687     -82596.828      194.55598      187.74693      917.31056    
     96800  -83066.46       470.21003     -82596.25       194.5874       187.76678      917.61973    
     96900  -83074.591      454.9552      -82619.636      194.62679      187.7912       917.9289     
     97000  -83084.234      443.57341     -82640.66       194.67071      187.82109      918.23808    
     97100  -83081.285      442.39572     -82638.889      194.7227       187.85042      918.54725    
     97200  -83068.432      454.53069     -82613.902      194.78023      187.88289      918.85642    
     97300  -83055.297      469.9735      -82585.324      194.83555      187.92425      919.16559    
     97400  -83043.608      464.64236     -82578.966      194.89422      187.96811      919.47476    
     97500  -83038.96       451.86263     -82587.097      194.95879      188.00994      919.78393    
     97600  -83038.557      450.22751     -82588.33       195.02145      188.05362      920.0931     
     97700  -83037.432      459.43087     -82578.001      195.08208      188.09868      920.40227    
     97800  -83029.714      459.71274     -82570.001      195.14497      188.13812      920.71144    
     97900  -83032.013      458.16168     -82573.852      195.21084      188.17331      921.02062    
     98000  -83034.486      451.87428     -82582.612      195.27153      188.2104       921.32979    
     98100  -83028.953      447.9506      -82581.002      195.33121      188.24421      921.63896    
     98200  -83024.02       457.78762     -82566.232      195.39638      188.26643      921.94813    
     98300  -83011.603      460.92929     -82550.674      195.46178      188.28191      922.2573     
     98400  -83009.7        464.40748     -82545.293      195.52559      188.29147      922.56647    
     98500  -83001.05       452.45414     -82548.595      195.59536      188.28949      922.87564    
     98600  -83000.104      452.88952     -82547.214      195.66651      188.27555      923.18481    
     98700  -82989.624      454.66342     -82534.961      195.7371       188.25464      923.49398    
     98800  -82988.494      465.01521     -82523.479      195.80864      188.22387      923.80315    
     98900  -82994.6        465.09474     -82529.506      195.88087      188.1825       924.11233    
     99000  -83004.347      453.8812      -82550.465      195.95324      188.1364       924.4215     
     99100  -83020.479      451.01899     -82569.46       196.02256      188.08478      924.73067    
     99200  -83029.942      452.5273      -82577.415      196.08735      188.03059      925.03984    
     99300  -83040.881      461.15702     -82579.724      196.14966      187.9786       925.34901    
     99400  -83047.627      460.00971     -82587.618      196.20677      187.92755      925.65818    
     99500  -83053.06       453.46006     -82599.599      196.26187      187.88         925.96735    
     99600  -83060.545      452.11801     -82608.427      196.31478      187.83807      926.27652    
     99700  -83054.922      451.08854     -82603.834      196.36192      187.80355      926.58569    
     99800  -83048.622      458.65166     -82589.971      196.40781      187.77596      926.89487    
     99900  -83047.431      466.06581     -82581.365      196.45205      187.75383      927.20404    
    100000  -83057.785      465.5135      -82592.272      196.4927       187.74025      927.51321    
Loop time of 34448.6 on 16 procs for 100000 steps with 11760 atoms

Performance: 0.251 ns/day, 95.690 hours/ns, 2.903 timesteps/s, 34.138 katom-step/s
46.4% CPU use with 16 MPI tasks x 1 OpenMP threads

MPI task timing breakdown:
Section |  min time  |  avg time  |  max time  |%varavg| %total
---------------------------------------------------------------
Pair    | 1463.4     | 2003       | 2655.1     | 852.3 |  5.81
Neigh   | 7.7366     | 18.554     | 26.145     | 157.3 |  0.05
Comm    | 4734.6     | 5332.5     | 5995.6     | 531.5 | 15.48
Output  | 110.5      | 113.95     | 117.75     |  19.4 |  0.33
Modify  | 23376      | 23805      | 24413      | 162.6 | 69.10
Other   |            | 3175       |            |       |  9.22

Nlocal:            735 ave        2483 max           0 min
Histogram: 6 2 3 1 1 0 0 1 1 1
Nghost:        1998.06 ave        4097 max         285 min
Histogram: 4 0 1 3 1 1 2 1 2 1
Neighs:              0 ave           0 max           0 min
Histogram: 16 0 0 0 0 0 0 0 0 0

Total # of neighbors = 0
Ave neighs/atom = 0
Neighbor list builds = 1018
Dangerous builds = 0
Total wall time: 9:34:11
