LAMMPS (2 Aug 2023 - Update 3)
OMP_NUM_THREADS environment is not set. Defaulting to 1 thread. (src/comm.cpp:98)
  using 1 OpenMP thread(s) per MPI task
Reading data file ...
  orthogonal box = (-100 -100 -2.3312511) to (100 100 38.891558)
  3 by 4 by 1 MPI processor grid
  reading atoms ...
  784 atoms
  read_data CPU = 0.008 seconds
Replication is creating a 1x1x11 = 11 times larger system...
  orthogonal box = (-100 -100 -2.3312511) to (100 100 451.11965)
  2 by 2 by 3 MPI processor grid
  8624 atoms
  replicate CPU = 0.005 seconds
System init for write_data ...
WARNING: Communication cutoff is 0.0. No ghost atoms will be generated. Atoms may get lost. (src/comm_brick.cpp:210)
Reading airebo potential file CH.airebo with DATE: 2011-10-25
Reading airebo potential file CH.airebo with DATE: 2011-10-25
Neighbor list info ...
  update: every = 1 steps, delay = 0 steps, check = yes
  max neighbors/atom: 2000, page size: 100000
  master list distance cutoff = 13.2
  ghost atom cutoff = 13.2
  binsize = 6.6, bins = 31 31 69
  5 neighbor lists, perpetual/occasional/extra = 5 0 0
  (1) pair airebo, perpetual, skip from (4)
      attributes: full, newton on, ghost
      pair build: skip/ghost
      stencil: none
      bin: none
  (2) pair airebo, perpetual, skip from (4)
      attributes: full, newton on, ghost
      pair build: skip/ghost
      stencil: none
      bin: none
  (3) pair lj/cut, perpetual, skip from (5)
      attributes: half, newton on, cut 13
      pair build: skip
      stencil: none
      bin: none
  (4) neighbor class addition, perpetual
      attributes: full, newton on, ghost
      pair build: full/bin/ghost
      stencil: full/ghost/bin/3d
      bin: standard
  (5) neighbor class addition, perpetual
      attributes: half, newton on, cut 13
      pair build: half/bin/atomonly/newton
      stencil: half/bin/3d
      bin: standard
Setting up sd style minimization ...
  Unit style    : metal
  Current step  : 0
Per MPI rank memory allocation (min/avg/max) = 10.64 | 11.15 | 11.41 Mbytes
   Step          Temp          E_pair         E_mol          TotEng         Press     
         0   0             -45799.016      0             -45799.016      6493.3023    
        22   0             -60920.808      0             -60920.808      191.11314    
Loop time of 3.65809 on 12 procs for 22 steps with 8624 atoms

71.4% CPU use with 12 MPI tasks x 1 OpenMP threads

Minimization stats:
  Stopping criterion = energy tolerance
  Energy initial, next-to-last, final = 
       -45799.01587139  -60916.0984856467  -60920.8078718071
  Force two-norm initial, final = 3348.8854 29.145539
  Force max component initial, final = 135.10344 1.8602613
  Final line search alpha, max atom move = 0.048367349 0.089975905
  Iterations, force evaluations = 22 39

MPI task timing breakdown:
Section |  min time  |  avg time  |  max time  |%varavg| %total
---------------------------------------------------------------
Pair    | 0.41315    | 0.52287    | 0.74653    |  11.5 | 14.29
Neigh   | 0          | 0          | 0          |   0.0 |  0.00
Comm    | 0.93334    | 1.1863     | 1.3461     |   9.6 | 32.43
Output  | 0          | 0          | 0          |   0.0 |  0.00
Modify  | 0          | 0          | 0          |   0.0 |  0.00
Other   |            | 1.949      |            |       | 53.28

Nlocal:        718.667 ave         783 max         655 min
Histogram: 3 0 0 0 3 3 0 0 0 3
Nghost:           2656 ave        2729 max        2580 min
Histogram: 1 2 0 0 2 4 0 0 1 2
Neighs:              0 ave           0 max           0 min
Histogram: 12 0 0 0 0 0 0 0 0 0

Total # of neighbors = 0
Ave neighs/atom = 0
Neighbor list builds = 0
Dangerous builds = 0
Setting up Verlet run ...
  Unit style    : metal
  Current step  : 22
  Time step     : 0.001
Per MPI rank memory allocation (min/avg/max) = 11.27 | 11.78 | 12.03 Mbytes
   Step          Temp          E_pair         E_mol          TotEng         Press          Volume    
        22   300           -60920.808      0             -60586.425      210.80438      18138036     
Loop time of 2.16172e-05 on 12 procs for 0 steps with 8624 atoms

88.3% CPU use with 12 MPI tasks x 1 OpenMP threads

MPI task timing breakdown:
Section |  min time  |  avg time  |  max time  |%varavg| %total
---------------------------------------------------------------
Pair    | 0          | 0          | 0          |   0.0 |  0.00
Neigh   | 0          | 0          | 0          |   0.0 |  0.00
Comm    | 0          | 0          | 0          |   0.0 |  0.00
Output  | 0          | 0          | 0          |   0.0 |  0.00
Modify  | 0          | 0          | 0          |   0.0 |  0.00
Other   |            | 2.162e-05  |            |       |100.00

Nlocal:        718.667 ave         724 max         713 min
Histogram: 2 3 0 0 1 0 0 2 1 3
Nghost:           2658 ave        2675 max        2641 min
Histogram: 2 0 2 1 1 1 1 2 0 2
Neighs:              0 ave           0 max           0 min
Histogram: 12 0 0 0 0 0 0 0 0 0

Total # of neighbors = 0
Ave neighs/atom = 0
Neighbor list builds = 0
Dangerous builds = 0
WARNING: New thermo_style command, previous thermo_modify settings will be lost (src/output.cpp:903)
WARNING: Dump 2 includes no atom IDs and is not sorted by ID. This may complicate post-processing tasks or visualization (src/dump.cpp:221)
Setting up Verlet run ...
  Unit style    : metal
  Current step  : 0
  Time step     : 0.001
Per MPI rank memory allocation (min/avg/max) = 12.77 | 13.28 | 13.53 Mbytes
   Step         PotEng         KinEng         TotEng           Lx             Ly             Lz      
         0  -60920.808      334.38307     -60586.425      200            200            453.4509     
       100  -60795.709      235.79077     -60559.918      200.0194       200.02262      453.67763    
       200  -60774.435      251.60902     -60522.826      200.02624      200.02581      453.90435    
       300  -60777.889      295.27909     -60482.61       200.00742      199.9965       454.13108    
       400  -60757.499      313.76967     -60443.73       200.01958      200.01291      454.3578     
       500  -60716.712      309.99192     -60406.72       200.02833      200.02488      454.58453    
       600  -60648.084      278.41958     -60369.664      200.01274      199.99829      454.81125    
       700  -60661.068      329.39126     -60331.677      200.02281      200.01108      455.03798    
       800  -60620.422      320.28756     -60300.135      200.02523      200.01961      455.26471    
       900  -60616.403      335.98307     -60280.42       200.00859      199.99108      455.49143    
      1000  -60667.763      376.27736     -60291.486      200.0246       200.0063       455.71816    
      1100  -60675.413      348.27163     -60327.141      200.02273      200.01225      455.94488    
      1200  -60680.041      324.91294     -60355.128      200.00221      199.9826       456.17161    
      1300  -60702.307      336.13221     -60366.174      200.01997      199.99717      456.39833    
      1400  -60650.632      304.51969     -60346.112      200.02198      200.00977      456.62506    
      1500  -60630.202      316.12816     -60314.074      199.99803      199.97883      456.85178    
      1600  -60652.333      365.10859     -60287.225      200.01713      199.98935      457.07851    
      1700  -60621.716      339.68861     -60282.027      200.02315      200.00194      457.30523    
      1800  -60643.528      340.64867     -60302.88       199.99689      199.9741       457.53196    
      1900  -60667.173      342.94249     -60324.23       200.01204      199.9808       457.75868    
      2000  -60649.653      317.09778     -60332.555      200.0181       199.98996      457.98541    
      2100  -60635.149      317.12702     -60318.022      199.99483      199.9702       458.21214    
      2200  -60645.558      352.87281     -60292.685      200.00792      199.97598      458.43886    
      2300  -60613.999      336.34325     -60277.656      200.01258      199.9796       458.66559    
      2400  -60624.005      342.1084      -60281.897      199.98943      199.96084      458.89231    
      2500  -60641.765      342.81299     -60298.952      200.00361      199.97061      459.11904    
      2600  -60625.558      316.49745     -60309.061      200.00911      199.97116      459.34576    
      2700  -60618.823      320.06745     -60298.756      199.98548      199.95177      459.57249    
      2800  -60622.022      345.83798     -60276.184      199.99737      199.96204      459.79921    
      2900  -60603.52       341.22313     -60262.297      200.00534      199.96343      460.02594    
      3000  -60606.278      339.0544      -60267.223      199.98193      199.94403      460.25266    
      3100  -60625.499      342.04203     -60283.457      199.99059      199.95301      460.47939    
      3200  -60609.535      318.59268     -60290.942      199.99742      199.95291      460.70612    
      3300  -60596.2        319.99563     -60276.204      199.97809      199.93597      460.93284    
      3400  -60596.231      343.52778     -60252.703      199.98479      199.94487      461.15957    
      3500  -60583.361      342.09068     -60241.271      199.98931      199.94233      461.38629    
      3600  -60584.841      335.99671     -60248.844      199.97259      199.92503      461.61302    
      3700  -60593.365      331.79247     -60261.573      199.97907      199.9358       461.83974    
      3800  -60586.224      322.75705     -60263.467      199.9815       199.9325       462.06647    
      3900  -60577.838      330.13174     -60247.707      199.96625      199.91368      462.29319    
      4000  -60571.5        343.66021     -60227.839      199.97229      199.92408      462.51992    
      4100  -60560.076      341.44798     -60218.628      199.97238      199.92289      462.74664    
      4200  -60565.068      338.64669     -60226.422      199.95918      199.90338      462.97337    
      4300  -60571.666      335.03027     -60236.636      199.96459      199.91137      463.2001     
      4400  -60563.734      326.44439     -60237.29       199.96255      199.91024      463.42682    
      4500  -60554.018      329.57081     -60224.447      199.95124      199.89249      463.65355    
      4600  -60545.477      337.48931     -60207.987      199.95707      199.89888      463.88027    
      4700  -60536.448      338.2785      -60198.17       199.95209      199.89728      464.107      
      4800  -60538.433      339.13111     -60199.302      199.9412       199.8814       464.33372    
      4900  -60535.765      330.73167     -60205.033      199.9484       199.88668      464.56045    
      5000  -60536.77       331.17225     -60205.598      199.94176      199.88305      464.78717    
      5100  -60526.733      329.70767     -60197.025      199.93144      199.86877      465.0139     
      5200  -60521.173      337.85659     -60183.316      199.93842      199.87353      465.24062    
      5300  -60511.69       339.58388     -60172.106      199.93124      199.86915      465.46735    
      5400  -60502.424      336.04326     -60166.38       199.92099      199.8562       465.69408    
      5500  -60500.279      334.85645     -60165.422      199.92757      199.85938      465.9208     
      5600  -60505.775      337.58989     -60168.185      199.91939      199.85289      466.14753    
      5700  -60498.19       327.33425     -60170.855      199.90959      199.84183      466.37425    
      5800  -60497.822      330.35197     -60167.471      199.91496      199.84399      466.60098    
      5900  -60483.688      328.69009     -60154.998      199.90607      199.83671      466.8277     
      6000  -60474.16       336.69358     -60137.466      199.89764      199.82671      467.05443    
      6100  -60460.601      337.03202     -60123.569      199.90323      199.82737      467.28115    
      6200  -60464.356      345.5756      -60118.781      199.89328      199.81761      467.50788    
      6300  -60463.451      338.895       -60124.556      199.88385      199.81028      467.7346     
      6400  -60461.946      332.36594     -60129.58       199.88751      199.81051      467.96133    
      6500  -60457.13       329.06165     -60128.068      199.87896      199.79996      468.18806    
      6600  -60444.242      328.11975     -60116.122      199.87014      199.79329      468.41478    
      6700  -60436.518      336.48878     -60100.029      199.87298      199.79275      468.64151    
      6800  -60434.006      346.47856     -60087.527      199.86461      199.78239      468.86823    
      6900  -60425.456      339.82888     -60085.627      199.85556      199.77568      469.09496    
      7000  -60421.732      331.54181     -60090.19       199.85644      199.77392      469.32168    
      7100  -60418.339      329.3261      -60089.013      199.84877      199.76341      469.54841    
      7200  -60411.943      334.30805     -60077.635      199.84056      199.75799      469.77513    
      7300  -60399.436      335.74651     -60063.69       199.84002      199.75607      470.00186    
      7400  -60393.049      337.13838     -60055.911      199.83201      199.74438      470.22858    
      7500  -60397.741      340.10973     -60057.631      199.8245       199.73923      470.45531    
      7600  -60387.311      330.87681     -60056.434      199.82291      199.73766      470.68204    
      7700  -60378.943      332.91148     -60046.031      199.81559      199.72514      470.90876    
      7800  -60371.313      338.16687     -60033.146      199.80825      199.7205       471.13549    
      7900  -60363.037      336.8452      -60026.192      199.80479      199.7187       471.36221    
      8000  -60358.709      333.86372     -60024.845      199.79686      199.70599      471.58894    
      8100  -60354.843      332.59475     -60022.248      199.79192      199.70103      471.81566    
      8200  -60342.449      329.01034     -60013.438      199.78692      199.69883      472.04239    
      8300  -60335.984      333.9783      -60002.005      199.77796      199.68632      472.26911    
      8400  -60332.066      337.73665     -59994.329      199.77376      199.68161      472.49584    
      8500  -60325.519      335.353       -59990.166      199.76722      199.67847      472.72256    
      8600  -60318.652      332.33385     -59986.318      199.75808      199.6667       472.94929    
      8700  -60306.766      327.78331     -59978.982      199.75554      199.66128      473.17602    
      8800  -60300.01       337.33216     -59962.678      199.74784      199.6569       473.40274    
      8900  -60294.71       339.17714     -59955.533      199.73807      199.64661      473.62947    
      9000  -60290.731      335.47103     -59955.26       199.73542      199.6412       473.85619    
      9100  -60282.959      332.03686     -59950.923      199.72776      199.63528      474.08292    
      9200  -60268.576      330.53594     -59938.04       199.71828      199.62597      474.30964    
      9300  -60260.831      334.66699     -59926.164      199.71458      199.62009      474.53637    
      9400  -60260.116      340.21597     -59919.9        199.7066       199.61233      474.76309    
      9500  -60253.679      334.50477     -59919.175      199.69666      199.60351      474.98982    
      9600  -60248.924      334.49157     -59914.433      199.69239      199.59728      475.21654    
      9700  -60236.582      332.32952     -59904.253      199.68407      199.5889       475.44327    
      9800  -60224.085      333.62253     -59890.462      199.67469      199.58089      475.67       
      9900  -60217.982      336.38301     -59881.599      199.66965      199.57345      475.89672    
     10000  -60216.719      338.89787     -59877.821      199.66083      199.56343      476.12345    
     10100  -60211.041      335.7213      -59875.32       199.65101      199.55564      476.35017    
     10200  -60201.846      333.43081     -59868.415      199.64508      199.549        476.5769     
     10300  -60195.213      337.29847     -59857.915      199.63652      199.53848      476.80362    
     10400  -60180.503      335.34332     -59845.16       199.62719      199.53049      477.03035    
     10500  -60170.481      333.41052     -59837.071      199.62055      199.52357      477.25707    
     10600  -60165.159      334.51755     -59830.641      199.61109      199.5123       477.4838     
     10700  -60159.99       333.57442     -59826.416      199.60225      199.50343      477.71052    
     10800  -60154.128      330.21739     -59823.911      199.59501      199.49639      477.93725    
     10900  -60144.892      327.75453     -59817.138      199.5841       199.48591      478.16398    
     11000  -60132.005      333.2275      -59798.777      199.57607      199.47685      478.3907     
     11100  -60118.196      331.65476     -59786.541      199.56866      199.46813      478.61743    
     11200  -60116.132      338.55721     -59777.575      199.55661      199.45708      478.84415    
     11300  -60108.985      334.16285     -59774.822      199.54837      199.44852      479.07088    
     11400  -60103.682      332.83853     -59770.843      199.54015      199.43787      479.2976     
     11500  -60098.609      337.2751      -59761.334      199.52871      199.42712      479.52433    
     11600  -60081.541      334.58421     -59746.957      199.51985      199.41881      479.75105    
     11700  -60072.981      337.78974     -59735.191      199.51021      199.4068       479.97778    
     11800  -60061.705      333.62724     -59728.078      199.49968      199.39478      480.2045     
     11900  -60056.816      334.21226     -59722.603      199.48978      199.38609      480.43123    
     12000  -60050.954      332.7273      -59718.226      199.47918      199.37377      480.65796    
     12100  -60043.913      330.36667     -59713.546      199.46899      199.36181      480.88468    
     12200  -60034.62       330.851       -59703.769      199.45791      199.35182      481.11141    
     12300  -60019.903      333.76881     -59686.135      199.44684      199.33986      481.33813    
     12400  -60008.709      335.14112     -59673.568      199.43656      199.32787      481.56486    
     12500  -60001.55       337.29225     -59664.258      199.42546      199.31595      481.79158    
     12600  -59999.352      337.00259     -59662.35       199.41454      199.30361      482.01831    
     12700  -59985.921      329.43109     -59656.489      199.40286      199.29291      482.24503    
     12800  -59973.342      329.18307     -59644.159      199.39159      199.27995      482.47176    
     12900  -59967.468      337.44438     -59630.024      199.38139      199.26697      482.69848    
     13000  -59957.228      335.92256     -59621.305      199.36799      199.25546      482.92521    
     13100  -59950.43       334.27305     -59616.157      199.3558       199.24254      483.15194    
     13200  -59945.023      334.33964     -59610.684      199.34615      199.22885      483.37866    
     13300  -59931.323      330.80695     -59600.516      199.33203      199.21674      483.60539    
     13400  -59919.958      332.57907     -59587.379      199.3196       199.20478      483.83211    
     13500  -59916.443      340.01018     -59576.433      199.30955      199.19024      484.05884    
     13600  -59904.652      334.3392      -59570.313      199.29516      199.17682      484.28556    
     13700  -59898.108      334.51668     -59563.592      199.28215      199.16565      484.51229    
     13800  -59882.43       330.26288     -59552.167      199.27116      199.15102      484.73901    
     13900  -59870.089      331.54981     -59538.54       199.25741      199.13654      484.96574    
     14000  -59867.775      339.62823     -59528.147      199.24355      199.12608      485.19246    
     14100  -59859.606      335.14812     -59524.458      199.23084      199.11113      485.41919    
     14200  -59850.062      332.11401     -59517.948      199.21851      199.09592      485.64592    
     14300  -59832.699      327.45212     -59505.247      199.20481      199.08458      485.87264    
     14400  -59824.565      334.83917     -59489.725      199.18983      199.07046      486.09937    
     14500  -59814.786      336.41375     -59478.372      199.17715      199.05513      486.32609    
     14600  -59812.09       338.62573     -59473.464      199.16365      199.04118      486.55282    
     14700  -59801.013      333.34226     -59467.67       199.1487       199.02737      486.77954    
     14800  -59786.111      330.30995     -59455.801      199.13438      199.0129       487.00627    
     14900  -59771.177      330.62401     -59440.553      199.12023      198.99793      487.23299    
     15000  -59765.945      337.85265     -59428.092      199.10587      198.98265      487.45972    
     15100  -59761.081      340.5301      -59420.55       199.09095      198.967        487.68644    
     15200  -59751.771      334.75347     -59417.018      199.07554      198.95258      487.91317    
     15300  -59742.263      334.13697     -59408.126      199.06091      198.93688      488.1399     
     15400  -59729.809      335.30976     -59394.499      199.04501      198.92071      488.36662    
     15500  -59712.186      332.59651     -59379.589      199.02925      198.90618      488.59335    
     15600  -59703.585      334.18466     -59369.401      199.01437      198.88917      488.82007    
     15700  -59698.503      336.73331     -59361.77       198.99881      198.87191      489.0468     
     15800  -59686.936      332.8009      -59354.136      198.98158      198.85804      489.27352    
     15900  -59677.646      333.41012     -59344.236      198.96566      198.84072      489.50025    
     16000  -59668.959      335.85429     -59333.104      198.94994      198.8232       489.72697    
     16100  -59657.5        335.91705     -59321.583      198.93267      198.80816      489.9537     
     16200  -59646.193      336.31451     -59309.878      198.91562      198.79048      490.18042    
     16300  -59629.96       334.30901     -59295.651      198.89986      198.77255      490.40715    
     16400  -59620.621      338.75482     -59281.866      198.88176      198.75664      490.63388    
     16500  -59613          338.66902     -59274.331      198.8645       198.73837      490.8606     
     16600  -59602.32       331.8211      -59270.499      198.84735      198.71949      491.08733    
     16700  -59591.109      330.90357     -59260.205      198.82924      198.70169      491.31405    
     16800  -59582.236      335.06787     -59247.169      198.81081      198.68353      491.54078    
     16900  -59570.939      338.53686     -59232.403      198.79322      198.6636       491.7675     
     17000  -59556.402      341.1791      -59215.222      198.77488      198.64523      491.99423    
     17100  -59544.942      339.25895     -59205.683      198.75563      198.62676      492.22095    
     17200  -59536.796      333.1854      -59203.611      198.73709      198.60565      492.44768    
     17300  -59525.689      330.72625     -59194.963      198.71828      198.58597      492.6744     
     17400  -59520.651      336.60076     -59184.05       198.69791      198.56661      492.90113    
     17500  -59504.261      333.43212     -59170.829      198.67858      198.5454       493.12786    
     17600  -59494.179      335.5395      -59158.64       198.65951      198.52505      493.35458    
     17700  -59485.89       336.24877     -59149.642      198.63887      198.50493      493.58131    
     17800  -59471.249      329.05573     -59142.194      198.61948      198.48227      493.80803    
     17900  -59461.676      330.48454     -59131.191      198.59879      198.46184      494.03476    
     18000  -59452.54       339.41091     -59113.129      198.57664      198.44133      494.26148    
     18100  -59437.913      336.71876     -59101.194      198.55727      198.41753      494.48821    
     18200  -59431.647      336.7629      -59094.884      198.53652      198.39528      494.71493    
     18300  -59414.558      329.0554      -59085.503      198.51371      198.37446      494.94166    
     18400  -59400.907      329.5129      -59071.394      198.49325      198.35113      495.16838    
     18500  -59396.564      340.15804     -59056.406      198.4717       198.3282       495.39511    
     18600  -59378.79       331.91207     -59046.878      198.4491       198.30688      495.62184    
     18700  -59372.903      332.89427     -59040.009      198.42781      198.28279      495.84856    
     18800  -59359.171      330.49438     -59028.677      198.40581      198.25907      496.07529    
     18900  -59343.779      331.03576     -59012.744      198.38245      198.23739      496.30201    
     19000  -59337.597      339.40181     -58998.195      198.35954      198.21394      496.52874    
     19100  -59323.984      336.52103     -58987.463      198.33766      198.18927      496.75546    
     19200  -59313.906      332.40659     -58981.499      198.3144       198.1666       496.98219    
     19300  -59303.97       331.39477     -58972.575      198.29027      198.1427       497.20891    
     19400  -59283.395      325.70716     -58957.688      198.26772      198.11824      497.43564    
     19500  -59272.847      331.75403     -58941.093      198.24431      198.09503      497.66236    
     19600  -59266.704      338.48783     -58928.216      198.21952      198.07004      497.88909    
     19700  -59255.36       334.8779      -58920.482      198.1967       198.04477      498.11582    
     19800  -59245.409      331.96752     -58913.442      198.1716       198.02105      498.34254    
     19900  -59241.467      339.69518     -58901.772      198.14663      197.99556      498.56927    
     20000  -59220.56       333.31245     -58887.248      198.12334      197.97002      498.79599    
     20100  -59210.644      337.21889     -58873.425      198.09811      197.94504      499.02272    
     20200  -59197.153      335.69517     -58861.458      198.07219      197.91925      499.24944    
     20300  -59183.385      332.19169     -58851.193      198.04808      197.89283      499.47617    
     20400  -59174.874      332.94178     -58841.932      198.02222      197.86675      499.70289    
     20500  -59162.161      331.54699     -58830.614      197.99495      197.8413       499.92962    
     20600  -59153.79       336.48443     -58817.306      197.97         197.81543      500.15634    
     20700  -59137.315      336.24037     -58801.075      197.94556      197.78715      500.38307    
     20800  -59120.479      337.19315     -58783.286      197.91839      197.76133      500.6098     
     20900  -59110.509      339.55857     -58770.95       197.89198      197.73548      500.83652    
     21000  -59102.792      339.73415     -58763.057      197.86456      197.70813      501.06325    
     21100  -59093.142      339.20076     -58753.941      197.83813      197.68079      501.28997    
     21200  -59077.727      335.30535     -58742.421      197.81188      197.65329      501.5167     
     21300  -59061.468      332.5495      -58728.919      197.78457      197.62537      501.74342    
     21400  -59047.8        336.90715     -58710.893      197.75674      197.59861      501.97015    
     21500  -59029.323      333.15232     -58696.17       197.72951      197.57065      502.19687    
     21600  -59025.397      338.21692     -58687.18       197.70234      197.5418       502.4236     
     21700  -59013.058      334.24098     -58678.817      197.67419      197.51306      502.65032    
     21800  -59000.898      333.69888     -58667.199      197.64652      197.48428      502.87705    
     21900  -58986.111      332.86695     -58653.244      197.61735      197.45661      503.10378    
     22000  -58977.701      339.83246     -58637.869      197.58753      197.42763      503.3305     
     22100  -58964.07       336.0381      -58628.032      197.56111      197.39728      503.55723    
     22200  -58955.251      332.67112     -58622.58       197.53316      197.36751      503.78395    
     22300  -58937.563      329.11466     -58608.448      197.50303      197.33838      504.01068    
     22400  -58926.288      335.22172     -58591.066      197.47416      197.30933      504.2374     
     22500  -58912.198      334.41542     -58577.783      197.4454       197.2784       504.46413    
     22600  -58903.377      334.60618     -58568.771      197.41545      197.24789      504.69085    
     22700  -58888.689      328.48326     -58560.206      197.38717      197.21752      504.91758    
     22800  -58875.22       332.60654     -58542.613      197.35753      197.18638      505.1443     
     22900  -58858.729      335.71807     -58523.011      197.32767      197.15644      505.37103    
     23000  -58851.07       339.7884      -58511.282      197.29805      197.12601      505.59776    
     23100  -58839.092      334.88568     -58504.207      197.26798      197.09401      505.82448    
     23200  -58829.497      334.64047     -58494.856      197.23848      197.06328      506.05121    
     23300  -58812.88       332.37636     -58480.503      197.20852      197.03303      506.27793    
     23400  -58793.837      333.05145     -58460.785      197.17801      197.00131      506.50466    
     23500  -58785.24       338.47607     -58446.764      197.14924      196.96963      506.73138    
     23600  -58769.076      333.25657     -58435.819      197.11876      196.93924      506.95811    
     23700  -58758.61       332.52914     -58426.08       197.08714      196.90924      507.18483    
     23800  -58751.711      332.74991     -58418.961      197.05823      196.87778      507.41156    
     23900  -58739.401      330.82283     -58408.578      197.02867      196.846        507.63828    
     24000  -58726.247      333.47049     -58392.777      196.99844      196.81557      507.86501    
     24100  -58706.231      330.27404     -58375.957      196.9692       196.78474      508.09174    
     24200  -58696.479      337.98413     -58358.494      196.93779      196.75449      508.31846    
     24300  -58682.487      337.92658     -58344.561      196.90701      196.72495      508.54519    
     24400  -58668.246      331.86176     -58336.384      196.87883      196.69306      508.77191    
     24500  -58657.068      327.67534     -58329.392      196.84906      196.66119      508.99864    
     24600  -58640.679      327.45187     -58313.227      196.81887      196.63167      509.22536    
     24700  -58628.142      333.14087     -58295.001      196.78835      196.60109      509.45209    
     24800  -58615.67       336.34358     -58279.326      196.75761      196.57092      509.67881    
     24900  -58606.484      338.08577     -58268.399      196.72877      196.53935      509.90554    
     25000  -58592.009      331.3684      -58260.64       196.70027      196.5076       510.13226    
     25100  -58580.017      327.32877     -58252.689      196.66979      196.47799      510.35899    
     25200  -58565.791      330.03675     -58235.754      196.63916      196.44851      510.58572    
     25300  -58548.516      333.63122     -58214.885      196.6101       196.41861      510.81244    
     25400  -58536.58       335.59656     -58200.983      196.58073      196.38812      511.03917    
     25500  -58521.632      331.32735     -58190.305      196.55211      196.35789      511.26589    
     25600  -58515.182      334.51879     -58180.663      196.52308      196.32784      511.49262    
     25700  -58503.414      333.90735     -58169.506      196.49277      196.29889      511.71934    
     25800  -58485.308      332.94428     -58152.364      196.46336      196.27028      511.94607    
     25900  -58469.049      336.16232     -58132.887      196.43504      196.23984      512.17279    
     26000  -58453.926      334.42897     -58119.497      196.40673      196.21054      512.39952    
     26100  -58443.04       333.27168     -58109.769      196.37772      196.18192      512.62624    
     26200  -58434.515      333.19941     -58101.315      196.34985      196.15186      512.85297    
     26300  -58419.132      327.08659     -58092.045      196.3208       196.12379      513.07969    
     26400  -58409.309      335.4449      -58073.864      196.29216      196.09525      513.30642    
     26500  -58384.835      330.77913     -58054.056      196.26479      196.06587      513.53315    
     26600  -58376.027      336.99943     -58039.027      196.23675      196.03777      513.75987    
     26700  -58362.36       336.20736     -58026.152      196.20858      196.00956      513.9866     
     26800  -58346.719      332.50092     -58014.218      196.18184      195.98023      514.21332    
     26900  -58341.714      339.33155     -58002.383      196.1539       195.95259      514.44005    
     27000  -58320.671      331.84577     -57988.825      196.12593      195.92494      514.66677    
     27100  -58309.13       336.54899     -57972.581      196.0994       195.89665      514.8935     
     27200  -58293.606      337.96791     -57955.638      196.07222      195.86871      515.12022    
     27300  -58280.318      339.29083     -57941.027      196.04584      195.84172      515.34695    
     27400  -58263.801      333.68046     -57930.12       196.02012      195.81305      515.57367    
     27500  -58249.447      328.40802     -57921.039      195.99393      195.78572      515.8004     
     27600  -58240.492      331.44777     -57909.044      195.96692      195.75982      516.02713    
     27700  -58223.942      333.29774     -57890.645      195.94021      195.7327       516.25385    
     27800  -58208.137      337.49269     -57870.645      195.91541      195.7059       516.48058    
     27900  -58194.61       337.36806     -57857.242      195.88956      195.67943      516.7073     
     28000  -58183.138      336.05109     -57847.087      195.86543      195.65287      516.93403    
     28100  -58169.903      331.898       -57838.005      195.84072      195.6267       517.16075    
     28200  -58157.317      326.11512     -57831.201      195.81516      195.60206      517.38748    
     28300  -58141.379      321.71331     -57819.666      195.79093      195.57764      517.6142     
     28400  -58125.013      329.53217     -57795.481      195.76598      195.55268      517.84093    
     28500  -58109.501      332.29941     -57777.202      195.7432       195.52835      518.06765    
     28600  -58101.095      341.22152     -57759.874      195.72063      195.50316      518.29438    
     28700  -58080.01       334.56716     -57745.443      195.69759      195.47916      518.52111    
     28800  -58063.717      329.04841     -57734.669      195.67487      195.45694      518.74783    
     28900  -58056.223      332.04681     -57724.176      195.65108      195.4342       518.97456    
     29000  -58040.14       331.7397      -57708.4        195.62834      195.41238      519.20128    
     29100  -58020.057      333.41239     -57686.645      195.60707      195.38952      519.42801    
     29200  -58012.553      340.65702     -57671.896      195.58636      195.36651      519.65473    
     29300  -57994.942      333.49757     -57661.444      195.56476      195.34501      519.88146    
     29400  -57985.237      334.8027      -57650.434      195.54352      195.3233       520.10818    
     29500  -57971.429      334.48133     -57636.948      195.52258      195.30212      520.33491    
     29600  -57952.813      334.68493     -57618.128      195.50129      195.28205      520.56163    
     29700  -57938.893      342.28695     -57596.606      195.4815       195.2617       520.78836    
     29800  -57920.617      336.50743     -57584.11       195.46239      195.24025      521.01509    
     29900  -57912.186      335.9608      -57576.226      195.44289      195.22084      521.24181    
     30000  -57895.753      330.61147     -57565.141      195.42303      195.20183      521.46854    
     30100  -57885.005      333.76105     -57551.244      195.40404      195.18265      521.69526    
     30200  -57868.906      336.3746      -57532.531      195.38521      195.16496      521.92199    
     30300  -57848.952      337.26206     -57511.69       195.3664       195.14626      522.14871    
     30400  -57835.658      335.91041     -57499.747      195.34955      195.12787      522.37544    
     30500  -57823.435      334.12256     -57489.313      195.33235      195.10983      522.60216    
     30600  -57810.052      334.66727     -57475.385      195.3146       195.09185      522.82889    
     30700  -57795.692      335.33237     -57460.36       195.29741      195.07557      523.05561    
     30800  -57782.571      335.85967     -57446.712      195.27985      195.05866      523.28234    
     30900  -57770.685      331.75738     -57438.928      195.26321      195.04216      523.50907    
     31000  -57754.066      329.36744     -57424.698      195.24701      195.0261       523.73579    
     31100  -57735.624      332.71058     -57402.914      195.23143      195.00882      523.96252    
     31200  -57720.862      335.86456     -57384.997      195.21612      194.99324      524.18924    
     31300  -57709.285      339.31124     -57369.974      195.19928      194.97812      524.41597    
     31400  -57694.771      334.84844     -57359.922      195.18476      194.96199      524.64269    
     31500  -57681.772      332.55923     -57349.213      195.17026      194.94639      524.86942    
     31600  -57663.348      333.02818     -57330.32       195.1548       194.93219      525.09614    
     31700  -57645.44       336.00949     -57309.43       195.14082      194.91686      525.32287    
     31800  -57630.43       334.71748     -57295.713      195.12701      194.90158      525.54959    
     31900  -57619.876      334.86619     -57285.009      195.11201      194.88885      525.77632    
     32000  -57606.417      332.90925     -57273.508      195.0981       194.87398      526.00305    
     32100  -57591.402      334.92632     -57256.475      195.08538      194.85907      526.22977    
     32200  -57572.547      338.38499     -57234.162      195.07145      194.84606      526.4565     
     32300  -57554.343      334.80369     -57219.539      195.05861      194.83173      526.68322    
     32400  -57541.517      333.49437     -57208.023      195.04667      194.8176       526.90995    
     32500  -57532.704      337.96054     -57194.743      195.03241      194.80605      527.13667    
     32600  -57518.944      338.64995     -57180.294      195.01961      194.79284      527.3634     
     32700  -57503.613      335.96011     -57167.652      195.00861      194.77923      527.59012    
     32800  -57490.032      331.29396     -57158.738      194.99589      194.76743      527.81685    
     32900  -57477.032      327.29652     -57149.736      194.98462      194.75396      528.04357    
     33000  -57462.707      331.67287     -57131.034      194.97407      194.7421       528.2703     
     33100  -57447.313      335.319       -57111.994      194.96113      194.73164      528.49703    
     33200  -57425.051      332.51663     -57092.534      194.95033      194.7201       528.72375    
     33300  -57411.166      336.38024     -57074.786      194.94003      194.70931      528.95048    
     33400  -57394.75       335.11219     -57059.638      194.92748      194.69878      529.1772     
     33500  -57382.668      331.9176      -57050.75       194.91866      194.68708      529.40393    
     33600  -57370.201      330.93346     -57039.268      194.90931      194.67531      529.63065    
     33700  -57352.76       332.04518     -57020.715      194.8969       194.66586      529.85738    
     33800  -57335.179      334.57721     -57000.602      194.88828      194.65549      530.0841     
     33900  -57319.45       335.00267     -56984.448      194.87817      194.64498      530.31083    
     34000  -57300.987      330.66306     -56970.324      194.86616      194.63657      530.53755    
     34100  -57289.693      333.68848     -56956.004      194.85818      194.62583      530.76428    
     34200  -57276.103      333.77677     -56942.326      194.84861      194.61507      530.99101    
     34300  -57263.454      331.446       -56932.008      194.8381       194.60646      531.21773    
     34400  -57249.64       332.13234     -56917.508      194.8304       194.59596      531.44446    
     34500  -57230.498      335.0143      -56895.483      194.82033      194.58646      531.67118    
     34600  -57212.788      335.45934     -56877.329      194.80987      194.57909      531.89791    
     34700  -57198.81       334.70546     -56864.105      194.80207      194.56965      532.12463    
     34800  -57186.763      336.08362     -56850.679      194.79255      194.56004      532.35136    
     34900  -57164.959      328.46855     -56836.491      194.78319      194.55267      532.57808    
     35000  -57153.065      333.78034     -56819.285      194.77571      194.54258      532.80481    
     35100  -57135.192      334.08135     -56801.111      194.76569      194.53382      533.03153    
     35200  -57122.419      337.20649     -56785.213      194.75671      194.52758      533.25826    
     35300  -57106.811      332.69815     -56774.113      194.74886      194.51681      533.48499    
     35400  -57093.214      331.08338     -56762.131      194.74028      194.5087       533.71171    
     35500  -57076.62       334.53483     -56742.085      194.73148      194.50132      533.93844    
     35600  -57058.271      337.72212     -56720.549      194.72399      194.49055      534.16516    
     35700  -57043.187      336.0236      -56707.164      194.71515      194.48315      534.39189    
     35800  -57032.646      336.39903     -56696.247      194.70536      194.47563      534.61861    
     35900  -57016.369      333.71916     -56682.65       194.69725      194.46607      534.84534    
     36000  -56995.557      330.09959     -56665.457      194.68815      194.45908      535.07206    
     36100  -56974.994      333.83976     -56641.154      194.6791       194.45065      535.29879    
     36200  -56964.104      338.9754      -56625.129      194.67211      194.44         535.52551    
     36300  -56947.881      332.55985     -56615.321      194.66446      194.43165      535.75224    
     36400  -56934.222      331.53263     -56602.69       194.65417      194.42327      535.97897    
     36500  -56921.568      333.93844     -56587.629      194.64712      194.41353      536.20569    
     36600  -56905.645      334.03689     -56571.608      194.63798      194.40527      536.43242    
     36700  -56887.329      333.60705     -56553.722      194.62687      194.39727      536.65914    
     36800  -56872.918      337.70087     -56535.217      194.62005      194.38748      536.88587    
     36900  -56853.796      333.69428     -56520.101      194.61121      194.37825      537.11259    
     37000  -56845.813      335.86359     -56509.949      194.60132      194.36924      537.33932    
     37100  -56831.658      333.60378     -56498.054      194.59498      194.35945      537.56604    
     37200  -56813.233      330.5242      -56482.709      194.58607      194.34926      537.79277    
     37300  -56794.832      333.20051     -56461.632      194.57628      194.34138      538.01949    
     37400  -56773.025      332.99732     -56440.027      194.56837      194.33199      538.24622    
     37500  -56765.523      339.81701     -56425.706      194.55904      194.32194      538.47295    
     37600  -56750.944      336.15797     -56414.786      194.54961      194.31473      538.69967    
     37700  -56737.453      335.06105     -56402.392      194.5404       194.30601      538.9264     
     37800  -56718.263      332.26186     -56386.001      194.53186      194.29611      539.15312    
     37900  -56699.017      336.19307     -56362.824      194.52295      194.28821      539.37985    
     38000  -56678.494      334.63698     -56343.857      194.51421      194.27885      539.60657    
     38100  -56670.528      339.75592     -56330.772      194.5064       194.26752      539.8333     
     38200  -56652.424      334.52309     -56317.901      194.4976       194.25954      540.06002    
     38300  -56638.754      335.45128     -56303.303      194.48726      194.24997      540.28675    
     38400  -56623.748      335.79943     -56287.948      194.47891      194.2405       540.51347    
     38500  -56604.986      333.75106     -56271.235      194.46872      194.23273      540.7402     
     38600  -56588.19       340.25699     -56247.933      194.45826      194.22319      540.96693    
     38700  -56567.629      338.73736     -56228.891      194.45073      194.21336      541.19365    
     38800  -56554.447      335.40982     -56219.037      194.44044      194.20421      541.42038    
     38900  -56544.483      335.98019     -56208.503      194.43069      194.19355      541.6471     
     39000  -56527.284      332.30246     -56194.981      194.42369      194.18336      541.87383    
     39100  -56514.914      335.25819     -56179.656      194.4128       194.17401      542.10055    
     39200  -56493.503      334.59705     -56158.906      194.40225      194.16497      542.32728    
     39300  -56476.106      339.11436     -56136.992      194.39379      194.1558       542.554      
     39400  -56458.894      335.87476     -56123.019      194.38128      194.14703      542.78073    
     39500  -56447.41       336.26415     -56111.146      194.37119      194.13805      543.00745    
     39600  -56428.304      332.74355     -56095.561      194.3633       194.12726      543.23418    
     39700  -56408.169      331.25928     -56076.91       194.35145      194.11681      543.46091    
     39800  -56392.763      336.37305     -56056.39       194.34262      194.10717      543.68763    
     39900  -56380.242      344.49711     -56035.744      194.33374      194.09533      543.91436    
     40000  -56363.249      338.8481      -56024.401      194.32159      194.08468      544.14108    
     40100  -56347.924      333.32266     -56014.602      194.31113      194.07614      544.36781    
     40200  -56330.77       331.00125     -55999.769      194.29988      194.0651       544.59453    
     40300  -56317.467      335.24641     -55982.221      194.28789      194.05474      544.82126    
     40400  -56300.902      336.30076     -55964.601      194.27724      194.04552      545.04798    
     40500  -56281.895      332.93975     -55948.956      194.26573      194.03271      545.27471    
     40600  -56267.291      331.71672     -55935.574      194.25505      194.02163      545.50143    
     40700  -56254.357      332.46074     -55921.896      194.24418      194.01018      545.72816    
     40800  -56235.305      331.52823     -55903.777      194.23234      193.99702      545.95489    
     40900  -56219.352      339.03522     -55880.316      194.22123      193.98626      546.18161    
     41000  -56201.359      339.49425     -55861.865      194.20893      193.97393      546.40834    
     41100  -56188.835      339.51249     -55849.323      194.19635      193.96151      546.63506    
     41200  -56168.539      332.08527     -55836.454      194.18437      193.95038      546.86179    
     41300  -56154.928      334.31732     -55820.611      194.1713       193.93679      547.08851    
     41400  -56140.255      335.93362     -55804.321      194.1592       193.92437      547.31524    
     41500  -56123.824      336.64632     -55787.178      194.14725      193.91185      547.54196    
     41600  -56104.48       337.2078      -55767.273      194.13397      193.89777      547.76869    
     41700  -56088.62       338.62739     -55749.992      194.12082      193.88541      547.99541    
     41800  -56073.676      333.43646     -55740.239      194.10828      193.87247      548.22214    
     41900  -56060.943      334.78214     -55726.161      194.09504      193.85746      548.44887    
     42000  -56042.584      334.17215     -55708.412      194.08213      193.84554      548.67559    
     42100  -56023.639      335.62495     -55688.014      194.06947      193.83185      548.90232    
     42200  -56010.723      344.75393     -55665.969      194.05549      193.81713      549.12904    
     42300  -55985.632      336.19412     -55649.438      194.04185      193.80582      549.35577    
     42400  -55970.37       329.9774      -55640.392      194.02747      193.79096      549.58249    
     42500  -55960.114      334.09269     -55626.021      194.01417      193.77606      549.80922    
     42600  -55947.359      336.78999     -55610.569      193.99959      193.76394      550.03594    
     42700  -55925.27       328.67305     -55596.597      193.98553      193.74799      550.26267    
     42800  -55910.91       330.19035     -55580.72       193.9726       193.73328      550.48939    
     42900  -55890.721      334.02904     -55556.692      193.95692      193.71975      550.71612    
     43000  -55876.011      339.30341     -55536.708      193.94325      193.70365      550.94285    
     43100  -55860.166      335.94133     -55524.225      193.92851      193.68917      551.16957    
     43200  -55842.103      331.33939     -55510.764      193.91268      193.6756       551.3963     
     43300  -55827.396      334.23105     -55493.165      193.89785      193.65878      551.62302    
     43400  -55808.93       334.2056      -55474.724      193.88242      193.64513      551.84975    
     43500  -55795.468      335.81642     -55459.652      193.8664       193.63031      552.07647    
     43600  -55781.86       330.40303     -55451.457      193.85195      193.61267      552.3032     
     43700  -55766.093      332.81747     -55433.276      193.8363       193.59922      552.52992    
     43800  -55743.786      333.53146     -55410.255      193.82009      193.58272      552.75665    
     43900  -55726.825      337.16335     -55389.662      193.8053       193.56589      552.98337    
     44000  -55708.741      337.55167     -55371.19       193.78845      193.55186      553.2101     
     44100  -55692.855      336.71436     -55356.14       193.77114      193.5352       553.43683    
     44200  -55680.428      333.08274     -55347.345      193.75566      193.51892      553.66355    
     44300  -55663.246      333.74144     -55329.505      193.73785      193.50344      553.89028    
     44400  -55643.554      336.02703     -55307.527      193.72162      193.48589      554.117      
     44500  -55619.769      332.83127     -55286.938      193.70566      193.46865      554.34373    
     44600  -55608.114      335.94069     -55272.173      193.68766      193.45227      554.57045    
     44700  -55596.973      334.21636     -55262.757      193.67068      193.43344      554.79718    
     44800  -55578.66       333.89587     -55244.765      193.65399      193.41675      555.0239     
     44900  -55560.551      336.0014      -55224.549      193.63399      193.39948      555.25063    
     45000  -55540.293      336.41081     -55203.882      193.61685      193.38127      555.47735    
     45100  -55523.081      337.28898     -55185.792      193.59874      193.36387      555.70408    
     45200  -55506.383      332.45116     -55173.931      193.57806      193.34573      555.93081    
     45300  -55492.573      331.81702     -55160.756      193.5611       193.32665      556.15753    
     45400  -55477.797      334.37899     -55143.418      193.54251      193.30664      556.38426    
     45500  -55455.617      332.90527     -55122.712      193.52283      193.28762      556.61098    
     45600  -55437.772      340.06381     -55097.708      193.50518      193.26779      556.83771    
     45700  -55419.764      339.1764      -55080.588      193.48583      193.24713      557.06443    
     45800  -55403.614      334.84369     -55068.77       193.46537      193.22803      557.29116    
     45900  -55387.712      333.61004     -55054.102      193.44517      193.20843      557.51788    
     46000  -55372.506      334.09486     -55038.411      193.42479      193.1881       557.74461    
     46100  -55354.464      331.00768     -55023.456      193.40364      193.16864      557.97133    
     46200  -55343.178      332.40039     -55010.778      193.38395      193.14766      558.19806    
     46300  -55330.328      332.77435     -54997.554      193.36403      193.12583      558.42479    
     46400  -55307.615      333.39177     -54974.223      193.3434       193.10515      558.65151    
     46500  -55284.6        334.69841     -54949.902      193.32405      193.08288      558.87824    
     46600  -55269.381      337.50721     -54931.874      193.30264      193.0615       559.10496    
     46700  -55254.505      335.34618     -54919.158      193.2804       193.04214      559.33169    
     46800  -55237.416      332.88721     -54904.529      193.25902      193.02014      559.55841    
     46900  -55216.466      331.40819     -54885.058      193.2364       192.99925      559.78514    
     47000  -55201.523      339.97556     -54861.547      193.21414      192.97833      560.01186    
     47100  -55179.804      340.32589     -54839.478      193.19298      192.9548       560.23859    
     47200  -55161.897      331.67566     -54830.222      193.17091      192.93187      560.46531    
     47300  -55149.02       331.44369     -54817.576      193.14956      192.90913      560.69204    
     47400  -55131.832      331.34193     -54800.49       193.12787      192.88563      560.91877    
     47500  -55114.077      332.69862     -54781.378      193.10421      192.86267      561.14549    
     47600  -55096.123      334.01874     -54762.105      193.08206      192.8409       561.37222    
     47700  -55078.313      332.94279     -54745.37       193.0573       192.81814      561.59894    
     47800  -55065.028      331.73038     -54733.298      193.03289      192.79607      561.82567    
     47900  -55046.747      329.20864     -54717.539      193.01079      192.77254      562.05239    
     48000  -55029.34       333.18129     -54696.158      192.98641      192.7486       562.27912    
     48100  -55010.927      339.67734     -54671.25       192.96354      192.72513      562.50584    
     48200  -54989.335      337.9065      -54651.428      192.94137      192.70031      562.73257    
     48300  -54972.866      336.96319     -54635.903      192.91664      192.6758       562.95929    
     48400  -54953.693      331.41978     -54622.274      192.89218      192.65285      563.18602    
     48500  -54940.968      333.13318     -54607.835      192.86778      192.62907      563.41275    
     48600  -54923.824      332.89979     -54590.924      192.84207      192.60495      563.63947    
     48700  -54905.472      333.29582     -54572.176      192.81611      192.58142      563.8662     
     48800  -54890.068      334.87827     -54555.19       192.79189      192.55678      564.09292    
     48900  -54872.439      331.97668     -54540.462      192.76744      192.53001      564.31965    
     49000  -54857.047      333.61986     -54523.427      192.7422       192.50576      564.54637    
     49100  -54837.282      335.27311     -54502.009      192.71734      192.47966      564.7731     
     49200  -54816.128      338.28635     -54477.841      192.69181      192.45318      564.99982    
     49300  -54796.104      337.60518     -54458.499      192.66531      192.42946      565.22655    
     49400  -54782.533      334.13655     -54448.396      192.63848      192.40308      565.45327    
     49500  -54766.19       333.97475     -54432.215      192.61281      192.37667      565.68       
     49600  -54747.321      332.91618     -54414.405      192.58568      192.35152      565.90672    
     49700  -54733.519      335.4926      -54398.027      192.55946      192.3238       566.13345    
     49800  -54711.611      327.79232     -54383.818      192.53319      192.29665      566.36018    
     49900  -54697.817      330.75672     -54367.06       192.50594      192.2707       566.5869     
     50000  -54684.535      340.65122     -54343.884      192.47922      192.24182      566.81363    
     50100  -54659.272      339.38407     -54319.888      192.45224      192.21487      567.04035    
     50200  -54644.151      339.1389      -54305.012      192.42405      192.18911      567.26708    
     50300  -54626.761      335.66878     -54291.092      192.39684      192.16001      567.4938     
     50400  -54605.318      331.99783     -54273.32       192.36986      192.13252      567.72053    
     50500  -54590.174      333.67618     -54256.498      192.34158      192.1068       567.94725    
     50600  -54578.264      336.35522     -54241.909      192.31373      192.07707      568.17398    
     50700  -54560.235      331.19177     -54229.044      192.28674      192.04979      568.4007     
     50800  -54538.641      329.21225     -54209.429      192.25849      192.0226       568.62743    
     50900  -54516.827      336.72529     -54180.102      192.23049      191.99335      568.85416    
     51000  -54500.188      338.87556     -54161.313      192.20292      191.96587      569.08088    
     51100  -54482.041      335.03686     -54147.005      192.17514      191.93782      569.30761    
     51200  -54469.653      337.60791     -54132.045      192.14694      191.90793      569.53433    
     51300  -54451.791      336.74535     -54115.046      192.11861      191.88098      569.76106    
     51400  -54431.996      334.78755     -54097.208      192.09014      191.85229      569.98778    
     51500  -54416.358      332.80077     -54083.557      192.06153      191.82283      570.21451    
     51600  -54396.762      329.7451      -54067.017      192.03214      191.79761      570.44123    
     51700  -54379.473      336.47576     -54042.998      192.00317      191.76769      570.66796    
     51800  -54354.6        335.90669     -54018.694      191.97647      191.73797      570.89468    
     51900  -54336.375      335.03822     -54001.337      191.94674      191.71108      571.12141    
     52000  -54317.973      332.16101     -53985.812      191.91886      191.68092      571.34814    
     52100  -54303.7        334.77482     -53968.925      191.89235      191.65057      571.57486    
     52200  -54285.708      334.80464     -53950.904      191.86171      191.62411      571.80159    
     52300  -54273.392      340.39193     -53933          191.83279      191.59568      572.02831    
     52400  -54251.499      334.81676     -53916.682      191.80444      191.56685      572.25504    
     52500  -54235.794      328.70188     -53907.092      191.77434      191.54102      572.48176    
     52600  -54220.907      334.3254      -53886.581      191.74518      191.51171      572.70849    
     52700  -54194.398      334.08599     -53860.312      191.71774      191.48253      572.93521    
     52800  -54172.945      335.22761     -53837.718      191.68881      191.45478      573.16194    
     52900  -54156.503      336.38229     -53820.12       191.66127      191.42382      573.38866    
     53000  -54140.021      332.82766     -53807.194      191.6329       191.39594      573.61539    
     53100  -54118.952      330.36516     -53788.587      191.60304      191.36867      573.84212    
     53200  -54102.407      334.53043     -53767.877      191.57461      191.33997      574.06884    
     53300  -54080.73       332.9709      -53747.759      191.5437       191.31202      574.29557    
     53400  -54065.462      334.26823     -53731.193      191.51497      191.28623      574.52229    
     53500  -54049.163      330.90062     -53718.262      191.4865       191.25551      574.74902    
     53600  -54034.193      335.63327     -53698.56       191.4583       191.2271       574.97574    
     53700  -54007.164      333.17578     -53673.988      191.42988      191.19894      575.20247    
     53800  -53987.876      338.27809     -53649.598      191.40261      191.16812      575.42919    
     53900  -53971.874      336.63961     -53635.234      191.37459      191.13939      575.65592    
     54000  -53954.427      332.38404     -53622.043      191.34494      191.11198      575.88264    
     54100  -53938.477      335.80678     -53602.67       191.31667      191.08341      576.10937    
     54200  -53917.954      334.85126     -53583.103      191.28706      191.05543      576.3361     
     54300  -53899.049      335.20656     -53563.842      191.25803      191.02913      576.56282    
     54400  -53880.346      332.93083     -53547.415      191.22923      190.99961      576.78955    
     54500  -53864.537      332.86017     -53531.677      191.20169      190.97275      577.01627    
     54600  -53846.981      334.31078     -53512.67       191.1745       190.94365      577.243      
     54700  -53822.292      334.90132     -53487.391      191.1471       190.91403      577.46972    
     54800  -53797.636      336.71652     -53460.919      191.11965      190.8876       577.69645    
     54900  -53784.478      339.57105     -53444.907      191.09231      190.85829      577.92317    
     55000  -53766.307      336.69345     -53429.614      191.06482      190.83114      578.1499     
     55100  -53745.186      332.51629     -53412.67       191.03504      190.8055       578.37662    
     55200  -53727.424      332.37251     -53395.052      191.00892      190.77818      578.60335    
     55300  -53713.361      336.33973     -53377.022      190.9798       190.7503       578.83008    
     55400  -53694.666      332.73772     -53361.928      190.95215      190.72572      579.0568     
     55500  -53676.526      330.19599     -53346.33       190.92676      190.69716      579.28353    
     55600  -53652.593      330.48745     -53322.105      190.89972      190.6686       579.51025    
     55700  -53632.347      334.68878     -53297.658      190.87374      190.64342      579.73698    
     55800  -53614.146      337.22192     -53276.924      190.84817      190.61421      579.9637     
     55900  -53594.396      335.46467     -53258.931      190.82164      190.58787      580.19043    
     56000  -53581.544      338.77056     -53242.773      190.79447      190.56319      580.41715    
     56100  -53558.338      333.78853     -53224.549      190.76777      190.5372       580.64388    
     56200  -53537.802      333.986       -53203.816      190.74015      190.51279      580.8706     
     56300  -53515.689      332.72241     -53182.967      190.71391      190.48813      581.09733    
     56400  -53497.24       336.88788     -53160.352      190.68879      190.46212      581.32406    
     56500  -53477.492      337.3124      -53140.179      190.66282      190.43596      581.55078    
     56600  -53459.837      335.89712     -53123.94       190.6398       190.40977      581.77751    
     56700  -53437.444      331.40967     -53106.035      190.61545      190.38301      582.00423    
     56800  -53418.204      334.14391     -53084.06       190.58942      190.35884      582.23096    
     56900  -53392.133      335.11641     -53057.017      190.56535      190.33459      582.45768    
     57000  -53371.295      341.94349     -53029.351      190.53847      190.31015      582.68441    
     57100  -53352.637      338.39009     -53014.246      190.51166      190.28862      582.91113    
     57200  -53335.228      338.06921     -52997.159      190.48722      190.26399      583.13786    
     57300  -53315.588      334.5557      -52981.033      190.46268      190.23938      583.36458    
     57400  -53299.003      335.01162     -52963.991      190.43864      190.21531      583.59131    
     57500  -53278.688      334.4948      -52944.193      190.41645      190.18914      583.81804    
     57600  -53254.799      334.55594     -52920.243      190.39325      190.1647       584.04476    
     57700  -53234.326      339.66363     -52894.663      190.36865      190.14072      584.27149    
     57800  -53212.508      337.08354     -52875.424      190.34548      190.117        584.49821    
     57900  -53195.205      334.979       -52860.226      190.31983      190.09491      584.72494    
     58000  -53177.042      336.22718     -52840.815      190.29516      190.07225      584.95166    
     58100  -53155.879      335.37974     -52820.5        190.27249      190.04936      585.17839    
     58200  -53137.071      335.70319     -52801.368      190.24785      190.02592      585.40511    
     58300  -53120.135      334.90859     -52785.226      190.22555      190.00256      585.63184    
     58400  -53094.453      330.42466     -52764.028      190.20409      189.97808      585.85856    
     58500  -53072.016      337.42267     -52734.594      190.18095      189.95512      586.08529    
     58600  -53050.853      344.04988     -52706.803      190.15872      189.93238      586.31202    
     58700  -53027.932      340.41878     -52687.513      190.13598      189.9101       586.53874    
     58800  -53008.241      337.13044     -52671.111      190.11302      189.88879      586.76547    
     58900  -52985.114      333.06559     -52652.048      190.08966      189.8668       586.99219    
     59000  -52962.785      331.71084     -52631.074      190.06742      189.84537      587.21892    
     59100  -52944.815      334.59494     -52610.22       190.04569      189.8234       587.44564    
     59200  -52931.396      337.75088     -52593.645      190.02373      189.80085      587.67237    
     59300  -52908.798      334.80739     -52573.991      190.00291      189.7788       587.89909    
     59400  -52882.686      334.97077     -52547.715      189.9817       189.75712      588.12582    
     59500  -52856.036      335.83711     -52520.199      189.9598       189.73515      588.35254    
     59600  -52833.432      336.26367     -52497.168      189.93843      189.71451      588.57927    
     59700  -52814.652      337.83365     -52476.818      189.91618      189.69392      588.806      
     59800  -52793.693      336.36519     -52457.327      189.89546      189.67247      589.03272    
     59900  -52773.071      336.95677     -52436.114      189.87516      189.65229      589.25945    
     60000  -52743.28       329.766       -52413.514      189.85277      189.63122      589.48617    
     60100  -52726.519      335.63681     -52390.882      189.83356      189.61043      589.7129     
     60200  -52702.018      333.89707     -52368.121      189.8129       189.58953      589.93962    
     60300  -52678.036      332.89753     -52345.139      189.79152      189.57022      590.16635    
     60400  -52659.066      336.10369     -52322.962      189.77206      189.55001      590.39307    
     60500  -52633.3        332.38754     -52300.913      189.75143      189.52932      590.6198     
     60600  -52614.345      335.14884     -52279.197      189.73168      189.51011      590.84652    
     60700  -52587.497      330.66974     -52256.827      189.71127      189.48979      591.07325    
     60800  -52564.549      330.41308     -52234.136      189.69153      189.47014      591.29998    
     60900  -52545.589      335.62264     -52209.966      189.67193      189.45106      591.5267     
     61000  -52522.316      335.21065     -52187.106      189.65101      189.43129      591.75343    
     61100  -52501.32       334.5327      -52166.787      189.63132      189.41295      591.98015    
     61200  -52477.349      331.60957     -52145.74       189.61189      189.3929       592.20688    
     61300  -52455.133      333.7478      -52121.385      189.59255      189.37323      592.4336     
     61400  -52430.559      337.18269     -52093.376      189.57269      189.35477      592.66033    
     61500  -52405.245      341.95597     -52063.289      189.5546       189.33365      592.88705    
     61600  -52381.037      339.20998     -52041.827      189.53609      189.31405      593.11378    
     61700  -52357.218      334.25926     -52022.959      189.51534      189.29573      593.3405     
     61800  -52333.212      332.221       -52000.991      189.49642      189.27659      593.56723    
     61900  -52315.402      335.27092     -51980.131      189.47731      189.25789      593.79396    
     62000  -52287.767      330.90821     -51956.859      189.45646      189.23991      594.02068    
     62100  -52270.117      337.57273     -51932.544      189.43768      189.22142      594.24741    
     62200  -52239.3        328.32161     -51910.978      189.41973      189.20213      594.47413    
     62300  -52217.581      326.95368     -51890.628      189.40043      189.18289      594.70086    
     62400  -52191.723      328.29603     -51863.427      189.38224      189.16363      594.92758    
     62500  -52169.311      338.1149      -51831.196      189.36476      189.14494      595.15431    
     62600  -52139.578      336.19843     -51803.38       189.34538      189.12624      595.38103    
     62700  -52117.512      335.61632     -51781.895      189.32666      189.10814      595.60776    
     62800  -52096.022      337.27374     -51758.748      189.30725      189.0911       595.83448    
     62900  -52069.68       332.86629     -51736.814      189.28815      189.07286      596.06121    
     63000  -52047.952      333.27985     -51714.672      189.27039      189.05329      596.28794    
     63100  -52024.17       332.91572     -51691.254      189.25203      189.03639      596.51466    
     63200  -51998.063      332.10073     -51665.962      189.23436      189.01631      596.74139    
     63300  -51976.301      334.55748     -51641.744      189.21695      188.9968       596.96811    
     63400  -51952.28       332.60569     -51619.674      189.1985       188.98103      597.19484    
     63500  -51926.114      331.39518     -51594.719      189.17929      188.96149      597.42156    
     63600  -51900.868      335.98863     -51564.88       189.16159      188.944        597.64829    
     63700  -51873.757      341.76426     -51531.992      189.14299      188.92787      597.87501    
     63800  -51841.335      336.15463     -51505.18       189.12409      188.90867      598.10174    
     63900  -51821.777      335.91496     -51485.862      189.10742      188.89143      598.32846    
     64000  -51797.206      335.92454     -51461.282      189.089        188.87308      598.55519    
     64100  -51775.94       338.56198     -51437.378      189.07172      188.85431      598.78192    
     64200  -51748.481      335.42392     -51413.057      189.05478      188.83707      599.00864    
     64300  -51721.804      333.43283     -51388.371      189.03597      188.81928      599.23537    
     64400  -51698.952      333.76353     -51365.188      189.01918      188.80156      599.46209    
     64500  -51671.834      327.41175     -51344.422      188.99984      188.78509      599.68882    
     64600  -51646.408      331.1751      -51315.233      188.98186      188.76804      599.91554    
     64700  -51611.705      329.96593     -51281.739      188.9654       188.74983      600.14227    
     64800  -51583.809      332.09314     -51251.715      188.94589      188.73319      600.36899    
     64900  -51560.347      335.06906     -51225.278      188.92919      188.715        600.59572    
     65000  -51535.817      334.36803     -51201.449      188.91204      188.69611      600.82244    
     65100  -51511.677      335.55854     -51176.118      188.89365      188.67931      601.04917    
     65200  -51485.792      337.20856     -51148.583      188.87631      188.66153      601.2759     
     65300  -51454.456      334.27333     -51120.182      188.85867      188.64343      601.50262    
     65400  -51429.303      336.13524     -51093.168      188.84044      188.62608      601.72935    
     65500  -51402.656      336.23834     -51066.418      188.82218      188.60907      601.95607    
     65600  -51376.395      337.05184     -51039.343      188.80457      188.59149      602.1828     
     65700  -51351.742      337.22286     -51014.52       188.78714      188.57355      602.40952    
     65800  -51322.104      333.08759     -50989.017      188.76908      188.55622      602.63625    
     65900  -51296.089      334.79116     -50961.297      188.751        188.53835      602.86297    
     66000  -51271.55       336.28241     -50935.267      188.73402      188.52085      603.0897     
     66100  -51245.693      334.39933     -50911.294      188.71624      188.502        603.31642    
     66200  -51215.632      335.19765     -50880.434      188.69872      188.48497      603.54315    
     66300  -51180.204      332.50643     -50847.698      188.6807       188.46787      603.76988    
     66400  -51153.524      338.68364     -50814.841      188.66317      188.44857      603.9966     
     66500  -51127.242      335.16248     -50792.079      188.64472      188.43337      604.22333    
     66600  -51097.852      332.68101     -50765.171      188.62622      188.41486      604.45005    
     66700  -51069.31       331.92012     -50737.39       188.6095       188.39667      604.67678    
     66800  -51042.605      331.53323     -50711.072      188.59089      188.3798       604.9035     
     66900  -51015.558      332.68673     -50682.871      188.57342      188.36059      605.13023    
     67000  -50989.371      336.17936     -50653.192      188.55626      188.34307      605.35695    
     67100  -50961.946      331.64289     -50630.303      188.53851      188.32459      605.58368    
     67200  -50932.427      334.09786     -50598.329      188.52147      188.3071       605.8104     
     67300  -50897.041      332.95161     -50564.089      188.50157      188.28994      606.03713    
     67400  -50871.102      336.38263     -50534.719      188.48423      188.27241      606.26386    
     67500  -50844.869      335.48766     -50509.381      188.46626      188.25529      606.49058    
     67600  -50816.18       335.94852     -50480.232      188.44628      188.23782      606.71731    
     67700  -50784.374      334.45034     -50449.924      188.43055      188.21981      606.94403    
     67800  -50755.204      335.07739     -50420.127      188.41276      188.20057      607.17076    
     67900  -50725.513      334.35528     -50391.158      188.39447      188.18327      607.39748    
     68000  -50696.513      336.28357     -50360.229      188.37792      188.16461      607.62421    
     68100  -50667.248      336.19654     -50331.051      188.35943      188.14623      607.85093    
     68200  -50636.48       334.49045     -50301.989      188.34009      188.1296       608.07766    
     68300  -50607.98       336.05811     -50271.922      188.32152      188.1119       608.30438    
     68400  -50578.433      336.98214     -50241.451      188.30345      188.09457      608.53111    
     68500  -50548.497      337.19        -50211.307      188.28344      188.07567      608.75784    
     68600  -50518.768      337.21231     -50181.556      188.26726      188.05807      608.98456    
     68700  -50488.084      336.83031     -50151.254      188.24891      188.03842      609.21129    
     68800  -50462.634      341.55491     -50121.079      188.23051      188.019        609.43801    
     68900  -50436.04       344.4855      -50091.555      188.21367      188.00139      609.66474    
     69000  -50404.119      341.4797      -50062.639      188.19408      187.9831       609.89146    
     69100  -50369.742      336.53419     -50033.208      188.175        187.96461      610.11819    
     69200  -50340.175      337.90729     -50002.268      188.15608      187.94743      610.34491    
     69300  -50308.185      335.11725     -49973.068      188.13666      187.92945      610.57164    
     69400  -50275.218      333.42198     -49941.796      188.11823      187.91055      610.79836    
     69500  -50245.806      335.34134     -49910.465      188.09894      187.89149      611.02509    
     69600  -50214.792      335.72485     -49879.067      188.08195      187.87333      611.25182    
     69700  -50184.652      336.54991     -49848.102      188.06314      187.85301      611.47854    
     69800  -50150.23       334.18942     -49816.041      188.04423      187.83438      611.70527    
     69900  -50119.965      335.85838     -49784.107      188.02626      187.81611      611.93199    
     70000  -50088.873      338.19983     -49750.673      188.00625      187.79671      612.15872    
     70100  -50057.296      338.92393     -49718.372      187.98701      187.77889      612.38544    
     70200  -50026.65       339.34512     -49687.305      187.96722      187.75991      612.61217    
     70300  -49994.003      339.50422     -49654.498      187.94845      187.74084      612.83889    
     70400  -49959.938      336.88637     -49623.052      187.92946      187.72177      613.06562    
     70500  -49927.696      337.83316     -49589.863      187.9099       187.7028       613.29234    
     70600  -49896.829      337.93651     -49558.893      187.8917       187.68299      613.51907    
     70700  -49870.97       343.03855     -49527.932      187.87202      187.66308      613.7458     
     70800  -49835.24       339.5501      -49495.69       187.85331      187.64492      613.97252    
     70900  -49804.308      341.76586     -49462.542      187.83379      187.62455      614.19925    
     71000  -49768.835      339.52357     -49429.311      187.81347      187.60534      614.42597    
     71100  -49733.282      336.16012     -49397.121      187.79455      187.58706      614.6527     
     71200  -49704.451      340.64132     -49363.81       187.77445      187.56709      614.87942    
     71300  -49670.556      339.58967     -49330.966      187.75425      187.54845      615.10615    
     71400  -49637.48       342.04042     -49295.439      187.7351       187.52833      615.33287    
     71500  -49605.204      342.58503     -49262.619      187.71501      187.5089       615.5596     
     71600  -49569.676      340.57849     -49229.098      187.69518      187.48936      615.78632    
     71700  -49539.645      344.58747     -49195.058      187.67631      187.46789      616.01305    
     71800  -49504.191      342.98081     -49161.21       187.65649      187.44844      616.23978    
     71900  -49466.752      339.0844      -49127.667      187.63604      187.42853      616.4665     
     72000  -49437.258      343.80791     -49093.45       187.61619      187.40843      616.69323    
     72100  -49404.179      345.79556     -49058.384      187.5949       187.38937      616.91995    
     72200  -49366.471      343.41178     -49023.059      187.57401      187.36933      617.14668    
     72300  -49333.247      344.64875     -48988.598      187.55371      187.34951      617.3734     
     72400  -49296.077      340.97205     -48955.105      187.53353      187.32864      617.60013    
     72500  -49263.01       344.84147     -48918.168      187.51395      187.30793      617.82685    
     72600  -49229.814      347.66306     -48882.151      187.49358      187.28716      618.05358    
     72700  -49197.513      349.88001     -48847.633      187.47357      187.26586      618.2803     
     72800  -49160.419      346.6354      -48813.784      187.45293      187.24573      618.50703    
[...]
     81600  -60679.918      333.37034     -60346.547      187.82727      186.9164       638.45887    
     81700  -60727.581      347.26337     -60380.318      187.90648      186.96688      638.68559    
     81800  -60749.809      330.93426     -60418.875      187.9863       187.02041      638.91232    
     81900  -60767.874      323.57073     -60444.303      188.06844      187.07506      639.13905    
     82000  -60783.664      329.81986     -60453.844      188.14891      187.12732      639.36577    
     82100  -60793.111      336.28238     -60456.829      188.22868      187.18003      639.5925     
     82200  -60796.264      335.95711     -60460.306      188.3142       187.2307       639.81922    
     82300  -60780.75       320.98084     -60459.77       188.39992      187.27625      640.04595    
     82400  -60767.171      327.59222     -60439.579      188.48156      187.32618      640.27267    
     82500  -60761.567      352.90059     -60408.667      188.56309      187.37846      640.4994     
     82600  -60765.144      359.37618     -60405.768      188.64543      187.42894      640.72612    
     82700  -60787.529      340.18256     -60447.346      188.72708      187.4808       640.95285    
     82800  -60802.65       313.86105     -60488.789      188.80781      187.53607      641.17957    
     82900  -60806.194      314.15099     -60492.043      188.8921       187.59297      641.4063     
     83000  -60801.709      336.80901     -60464.9        188.97492      187.6456       641.63303    
     83100  -60804.885      356.23989     -60448.645      189.05915      187.69635      641.85975    
     83200  -60810.031      337.93832     -60472.092      189.14325      187.74921      642.08648    
     83300  -60818.41       317.96097     -60500.449      189.22466      187.79888      642.3132     
     83400  -60819.314      320.02019     -60499.293      189.30307      187.84676      642.53993    
     83500  -60812.737      342.01514     -60470.722      189.37521      187.8897       642.76665    
     83600  -60809.03       355.09002     -60453.94       189.44879      187.92367      642.99338    
     83700  -60825.757      346.54941     -60479.208      189.51792      187.94667      643.2201     
     83800  -60839.359      322.71984     -60516.639      189.5849       187.96667      643.44683    
     83900  -60850.338      319.97659     -60530.361      189.65198      187.97472      643.67355    
     84000  -60850.827      333.05074     -60517.776      189.71938      187.97345      643.90028    
     84100  -60848.524      346.18821     -60502.335      189.78118      187.96713      644.12701    
     84200  -60859.017      347.70618     -60511.311      189.84494      187.95605      644.35373    
     84300  -60872.778      330.32202     -60542.456      189.90286      187.94544      644.58046    
     84400  -60875.729      315.09528     -60560.634      189.95244      187.93754      644.80718    
     84500  -60890.803      342.21331     -60548.59       189.99949      187.93049      645.03391    
     84600  -60886.63       345.57259     -60541.057      190.03965      187.9289       645.26063    
     84700  -60896.077      341.58154     -60554.496      190.07766      187.93258      645.48736    
     84800  -60913.789      332.94453     -60580.844      190.11385      187.93842      645.71408    
     84900  -60917.02       318.11692     -60598.903      190.15099      187.95065      645.94081    
     85000  -60915.295      324.27693     -60591.018      190.18782      187.96535      646.16753    
     85100  -60908.597      342.07986     -60566.518      190.2269       187.98437      646.39426    
     85200  -60891.688      340.11126     -60551.577      190.26844      188.00876      646.62099    
     85300  -60878.515      331.15534     -60547.36       190.30927      188.03828      646.84771    
     85400  -60865.66       326.63028     -60539.03       190.34955      188.07107      647.07444    
     85500  -60850.971      331.85413     -60519.117      190.38703      188.09833      647.30116    
     85600  -60837.68       340.23822     -60497.442      190.42087      188.12381      647.52789    
     85700  -60824.681      337.60043     -60487.08       190.44785      188.14239      647.75461    
     85800  -60823.489      336.88181     -60486.607      190.47131      188.15226      647.98134    
     85900  -60827.524      335.96472     -60491.559      190.49474      188.15648      648.20806    
     86000  -60835.408      334.08803     -60501.32       190.51269      188.15412      648.43479    
     86100  -60846.965      334.12724     -60512.837      190.53032      188.15147      648.66151    
     86200  -60860.595      335.18345     -60525.412      190.55314      188.14719      648.88824    
     86300  -60875.041      335.47111     -60539.57       190.57812      188.14091      649.11497    
     86400  -60883.532      331.61191     -60551.92       190.60491      188.13775      649.34169    
     86500  -60890.991      332.95548     -60558.036      190.63876      188.14175      649.56842    
     86600  -60894.079      333.68872     -60560.39       190.67863      188.15074      649.79514    
     86700  -60891.351      330.08931     -60561.261      190.72106      188.16378      650.02187    
     86800  -60882.844      329.82593     -60553.018      190.76466      188.17882      650.24859    
     86900  -60872.201      336.21598     -60535.985      190.80952      188.19351      650.47532    
     87000  -60866.278      343.28532     -60522.993      190.85411      188.21088      650.70204    
     87100  -60865.295      339.63827     -60525.657      190.89554      188.23381      650.92877    
     87200  -60874.56       333.8316      -60540.729      190.94193      188.26117      651.15549    
     87300  -60886.282      330.72901     -60555.553      190.99206      188.29071      651.38222    
     87400  -60905.118      338.25668     -60566.862      191.04427      188.32276      651.60895    
     87500  -60907.289      326.37559     -60580.914      191.10354      188.36129      651.83567    
     87600  -60898.167      319.23925     -60578.928      191.1688       188.40646      652.0624     
     87700  -60893.602      340.26212     -60553.34       191.23254      188.45472      652.28912    
     87800  -60869.43       335.20855     -60534.221      191.29969      188.509        652.51585    
     87900  -60867.314      342.96481     -60524.349      191.36905      188.56059      652.74257    
     88000  -60862.817      334.96602     -60527.851      191.44238      188.61227      652.9693     
     88100  -60869.234      334.61854     -60534.615      191.51416      188.66613      653.19602    
     88200  -60866.287      328.87804     -60537.409      191.58295      188.71453      653.42275    
     88300  -60866.909      336.79854     -60530.11       191.65306      188.754        653.64947    
     88400  -60870.933      342.22313     -60528.71       191.7197       188.79318      653.8762     
     88500  -60878.883      337.0315      -60541.852      191.7793       188.8312       654.10293    
     88600  -60891.49       329.937       -60561.553      191.83778      188.86619      654.32965    
     88700  -60905.537      327.28973     -60578.247      191.89911      188.89598      654.55638    
     88800  -60915.099      330.7702      -60584.329      191.95828      188.92573      654.7831     
     88900  -60926.783      341.97186     -60584.812      192.01744      188.9579       655.00983    
     89000  -60933.248      338.25876     -60594.989      192.08072      188.9861       655.23655    
     89100  -60942.035      330.30451     -60611.731      192.14649      189.01318      655.46328    
     89200  -60946.133      326.47464     -60619.658      192.20715      189.04872      655.69       
     89300  -60944.49       330.88327     -60613.607      192.26728      189.08811      655.91673    
     89400  -60943.485      340.08053     -60603.405      192.3308       189.12928      656.14345    
     89500  -60946.826      344.54811     -60602.278      192.39165      189.17897      656.37018    
     89600  -60951.973      334.41718     -60617.556      192.44621      189.23961      656.59691    
     89700  -60952.328      321.61157     -60630.716      192.49711      189.30682      656.82363    
     89800  -60952.525      328.47463     -60624.05       192.54666      189.37969      657.05036    
     89900  -60950.231      342.74261     -60607.488      192.59253      189.45834      657.27708    
     90000  -60945.594      341.5173      -60604.077      192.63701      189.54252      657.50381    
     90100  -60955.086      337.10203     -60617.984      192.68354      189.62329      657.73053    
     90200  -60959.547      325.86187     -60633.685      192.72814      189.70234      657.95726    
     90300  -60945.804      315.68813     -60630.116      192.77054      189.77828      658.18398    
     90400  -60923.485      328.34751     -60595.137      192.80917      189.84447      658.41071    
     90500  -60903.233      348.91652     -60554.317      192.84776      189.90298      658.63743    
     90600  -60898.457      354.15392     -60544.303      192.8807       189.95622      658.86416    
     90700  -60903.803      334.25777     -60569.545      192.90782      190.00306      659.09089    
     90800  -60921.527      324.59395     -60596.933      192.9315       190.0454       659.31761    
     90900  -60933.813      326.76182     -60607.051      192.9511       190.0827       659.54434    
     91000  -60943.388      339.13861     -60604.249      192.97266      190.11142      659.77106    
     91100  -60949.686      340.32095     -60609.365      192.99887      190.13474      659.99779    
     91200  -60955.549      329.16794     -60626.381      193.02666      190.15685      660.22451    
     91300  -60953.948      320.21552     -60633.733      193.05668      190.18381      660.45124    
     91400  -60948.98       329.68624     -60619.293      193.09144      190.21039      660.67796    
     91500  -60932.173      337.88722     -60594.286      193.13178      190.23824      660.90469    
     91600  -60926.64       346.83905     -60579.801      193.17592      190.27388      661.13141    
     91700  -60925.632      340.35149     -60585.281      193.22353      190.31546      661.35814    
     91800  -60922.007      326.06526     -60595.942      193.28209      190.3539       661.58487    
     91900  -60925.236      330.23463     -60595.002      193.34835      190.39449      661.81159    
     92000  -60939.43       348.53363     -60590.896      193.41874      190.43698      662.03832    
     92100  -60956.647      347.92089     -60608.726      193.4953       190.48013      662.26504    
     92200  -60976.395      330.62363     -60645.771      193.57929      190.52717      662.49177    
     92300  -60997.74       323.5674      -60674.173      193.66806      190.57694      662.71849    
     92400  -60997.82       317.81665     -60680.003      193.75859      190.63043      662.94522    
     92500  -60990.422      331.50544     -60658.916      193.85393      190.68453      663.17194    
     92600  -60979.871      345.85917     -60634.011      193.94909      190.73857      663.39867    
     92700  -60976.572      344.66979     -60631.902      194.03668      190.79627      663.62539    
     92800  -60971.932      326.24704     -60645.685      194.12147      190.85626      663.85212    
     92900  -60963.302      319.87944     -60643.423      194.20159      190.91419      664.07885    
     93000  -60955.461      337.47204     -60617.989      194.27341      190.97082      664.30557    
     93100  -60948.668      350.96577     -60597.702      194.33536      191.02902      664.5323     
     93200  -60950.893      343.12045     -60607.773      194.38647      191.0854       664.75902    
     93300  -60958.301      325.47307     -60632.828      194.42567      191.1406       664.98575    
     93400  -60960.666      319.95761     -60640.708      194.45237      191.19411      665.21247    
     93500  -60951.244      329.50754     -60621.737      194.46844      191.24576      665.4392     
     93600  -60948.193      349.87823     -60598.315      194.47759      191.29346      665.66592    
     93700  -60953.377      350.88052     -60602.497      194.48262      191.33706      665.89265    
     93800  -60968          334.25448     -60633.745      194.48957      191.37821      666.11937    
     93900  -60980.527      321.50116     -60659.025      194.49934      191.41341      666.3461     
     94000  -60989.118      327.16734     -60661.951      194.51144      191.44425      666.57283    
     94100  -60994.723      341.7661      -60652.957      194.52922      191.47467      666.79955    
     94200  -60997.807      342.32811     -60655.479      194.54917      191.50608      667.02628    
     94300  -61006.428      333.80437     -60672.623      194.57183      191.53838      667.253      
     94400  -61013.588      328.35329     -60685.235      194.59702      191.5735       667.47973    
     94500  -61012.781      328.99539     -60683.786      194.62388      191.6131       667.70645    
     94600  -61005.29       332.99704     -60672.293      194.65024      191.65678      667.93318    
     94700  -61001.032      340.50158     -60660.531      194.67806      191.7054       668.1599     
     94800  -60996.104      337.18535     -60658.919      194.70876      191.75471      668.38663    
     94900  -60999.86       335.21368     -60664.647      194.74172      191.80468      668.61335    
     95000  -61001.635      332.32892     -60669.306      194.77128      191.85935      668.84008    
     95100  -61003.143      334.20937     -60668.933      194.79952      191.91615      669.06681    
     95200  -60996.087      332.88269     -60663.205      194.83022      191.97347      669.29353    
     95300  -60986.622      332.83086     -60653.791      194.86135      192.02856      669.52026    
     95400  -60978.761      336.05359     -60642.707      194.89264      192.08437      669.74698    
     95500  -60973.107      338.24388     -60634.863      194.92392      192.14004      669.97371    
     95600  -60971.919      336.33995     -60635.58       194.95401      192.19231      670.20043    
     95700  -60976.096      332.23135     -60643.864      194.98198      192.24706      670.42716    
     95800  -60982.467      333.34675     -60649.12       195.01252      192.30258      670.65388    
     95900  -60988.791      337.93744     -60650.853      195.04362      192.35475      670.88061    
     96000  -60996.788      338.7646      -60658.024      195.07532      192.40571      671.10733    
     96100  -60999.833      330.97104     -60668.862      195.10731      192.46054      671.33406    
     96200  -60999.041      325.87109     -60673.17       195.13536      192.51703      671.56079    
     96300  -61003.993      336.59766     -60667.395      195.16562      192.57248      671.78751    
     96400  -61011.811      344.92867     -60666.882      195.20015      192.62723      672.01424    
     96500  -61019.759      336.21093     -60683.548      195.23502      192.68452      672.24096    
     96600  -61030.244      325.92488     -60704.319      195.27101      192.74444      672.46769    
     96700  -61032.778      324.2507      -60708.527      195.3085       192.80499      672.69441    
     96800  -61031.329      336.28801     -60695.041      195.34776      192.86773      672.92114    
     96900  -61031.173      347.02149     -60684.152      195.39007      192.93214      673.14786    
     97000  -61036.733      341.56555     -60695.168      195.43242      192.99746      673.37459    
     97100  -61042.363      325.82388     -60716.539      195.47447      193.06714      673.60131    
     97200  -61041.35       320.24181     -60721.109      195.51816      193.13826      673.82804    
     97300  -61034.38       332.57165     -60701.808      195.56342      193.20613      674.05476    
     97400  -61029.487      346.22176     -60683.265      195.60763      193.27496      674.28149    
     97500  -61025.297      338.83354     -60686.464      195.65066      193.34527      674.50822    
     97600  -61024.453      327.04685     -60697.406      195.69051      193.41411      674.73494    
     97700  -61015.873      323.06572     -60692.808      195.72382      193.48078      674.96167    
     97800  -61002.986      334.80437     -60668.181      195.75233      193.54803      675.18839    
     97900  -60996.982      350.968       -60646.014      195.77653      193.61075      675.41512    
     98000  -60993.617      344.79998     -60648.817      195.79592      193.67147      675.64184    
     98100  -60998.37       329.27211     -60669.098      195.81254      193.73351      675.86857    
     98200  -61001.886      322.21007     -60679.676      195.82445      193.79347      676.09529    
     98300  -61009.657      335.7864      -60673.87       195.83559      193.85108      676.32202    
     98400  -61007.986      342.01444     -60665.971      195.85197      193.90951      676.54874    
     98500  -61013.321      339.26523     -60674.056      195.86709      193.96541      676.77547    
     98600  -61017.706      328.2163      -60689.49       195.88626      194.02186      677.0022     
     98700  -61022.869      329.42016     -60693.449      195.91074      194.07809      677.22892    
     98800  -61023.586      335.99105     -60687.595      195.93766      194.13252      677.45565    
     98900  -61024.809      340.1118      -60684.697      195.97155      194.18964      677.68237    
     99000  -61026.585      334.81438     -60691.77       196.00954      194.24909      677.9091     
     99100  -61031.473      329.73305     -60701.74       196.05199      194.30797      678.13582    
     99200  -61030.605      328.07301     -60702.532      196.09678      194.36484      678.36255    
     99300  -61026.222      334.58286     -60691.639      196.14187      194.42391      678.58927    
     99400  -61024.249      342.98916     -60681.26       196.18768      194.48491      678.816      
     99500  -61023.469      338.50276     -60684.966      196.23357      194.54467      679.04272    
     99600  -61028.455      332.15702     -60696.298      196.2807       194.60556      679.26945    
     99700  -61033.203      331.48565     -60701.717      196.32461      194.66893      679.49618    
     99800  -61025.96       329.84044     -60696.119      196.3646       194.73448      679.7229     
     99900  -61016.017      334.74153     -60681.276      196.40265      194.80372      679.94963    
    100000  -61011.305      342.77708     -60668.528      196.43616      194.87527      680.17635    
Loop time of 55683.3 on 12 procs for 100000 steps with 8624 atoms

Performance: 0.155 ns/day, 154.676 hours/ns, 1.796 timesteps/s, 15.488 katom-step/s
41.0% CPU use with 12 MPI tasks x 1 OpenMP threads

MPI task timing breakdown:
Section |  min time  |  avg time  |  max time  |%varavg| %total
---------------------------------------------------------------
Pair    | 1657.4     | 2170.2     | 2677.3     | 644.1 |  3.90
Neigh   | 9.2677     | 15.817     | 23.271     | 104.6 |  0.03
Comm    | 8382.4     | 9110.1     | 9624.1     | 409.1 | 16.36
Output  | 170.13     | 174.44     | 178.68     |  20.8 |  0.31
Modify  | 38725      | 39219      | 39593      | 134.6 | 70.43
Other   |            | 4994       |            |       |  8.97

Nlocal:        718.667 ave        2680 max           0 min
Histogram: 3 4 0 3 0 1 0 0 0 1
Nghost:        2037.67 ave        3737 max         397 min
Histogram: 1 1 2 1 2 0 1 1 2 1
Neighs:              0 ave           0 max           0 min
Histogram: 12 0 0 0 0 0 0 0 0 0

Total # of neighbors = 0
Ave neighs/atom = 0
Neighbor list builds = 939
Dangerous builds = 0
Total wall time: 15:28:08
