LAMMPS (2 Aug 2023 - Update 3)
OMP_NUM_THREADS environment is not set. Defaulting to 1 thread. (src/comm.cpp:98)
  using 1 OpenMP thread(s) per MPI task

# 1------general---------------
units                             metal      #单位为lammps 中的metel 类型
dimension                    3          #模拟的维度 三维
boundary                    p p p      #周期边界条件
atom_style                  atomic   #原子类型自动
atom_modify              map array sort 100 2.0
neighbor                    3.0 bin
neigh_modify            every 1 delay 0 check yes
#2 -----global variable-------定义全局变量，方便统一修改；
variable temperature equal 300
variable tstep equal 0.001
variable pressure equal 0
variable thermalstep equal 100
variable dumpstep equal 1000
variable relaxtime equal 0
variable totaltime equal 100000
variable deformrate equal 5e-3
#3 -------model------------
#box tilt large
read_data     1.lmp
Reading data file ...
  orthogonal box = (-100 -100 -2.331251) to (100 100 38.891558)
  3 by 4 by 1 MPI processor grid
  reading atoms ...
  920 atoms
  read_data CPU = 0.024 seconds
replicate 1 1 1
Replication is creating a 1x1x1 = 1 times larger system...
  orthogonal box = (-100 -100 -2.331251) to (100 100 38.891558)
  3 by 4 by 1 MPI processor grid
  920 atoms
  replicate CPU = 0.015 seconds
group SR type 2
240 atoms in group SR
delete_atoms group SR
Deleted 240 atoms, new total = 680

write_data l.data
System init for write_data ...
WARNING: Communication cutoff is 0.0. No ghost atoms will be generated. Atoms may get lost. (src/comm_brick.cpp:210)

pair_style hybrid airebo 3.0 airebo 3.0  lj/cut 10
pair_coeff * * airebo 1 CH.airebo C NULL
Reading airebo potential file CH.airebo with DATE: 2011-10-25
pair_coeff * * airebo 2 CH.airebo NULL C
Reading airebo potential file CH.airebo with DATE: 2011-10-25
pair_coeff 1 2 lj/cut 0.00456 3.431

# 5------minimize -----------
min_style      sd
minimize       1.0e-4 1.0e-6 100 1000
Neighbor list info ...
  update: every = 1 steps, delay = 0 steps, check = yes
  max neighbors/atom: 2000, page size: 100000
  master list distance cutoff = 13.2
  ghost atom cutoff = 13.2
  binsize = 6.6, bins = 31 31 7
  5 neighbor lists, perpetual/occasional/extra = 5 0 0
  (1) pair airebo, perpetual, skip from (4)
      attributes: full, newton on, ghost
      pair build: skip/ghost
      stencil: none
      bin: none
  (2) pair airebo, perpetual, skip from (4)
      attributes: full, newton on, ghost
      pair build: skip/ghost
      stencil: none
      bin: none
  (3) pair lj/cut, perpetual, skip from (5)
      attributes: half, newton on, cut 13
      pair build: skip
      stencil: none
      bin: none
  (4) neighbor class addition, perpetual
      attributes: full, newton on, ghost
      pair build: full/bin/ghost
      stencil: full/ghost/bin/3d
      bin: standard
  (5) neighbor class addition, perpetual
      attributes: half, newton on, cut 13
      pair build: half/bin/atomonly/newton
      stencil: half/bin/3d
      bin: standard
Per MPI rank memory allocation (min/avg/max) = 8.247 | 8.404 | 9.188 Mbytes
   Step          Temp          E_pair         E_mol          TotEng         Press     
         0   0             -5031.7108      0             -5031.7108     -0.21847277   
         1   0             -5031.7349      0             -5031.7349     -0.39920433   
Loop time of 0.116004 on 12 procs for 1 steps with 680 atoms

80.9% CPU use with 12 MPI tasks x 1 OpenMP threads

Minimization stats:
  Stopping criterion = energy tolerance
  Energy initial, next-to-last, final = 
     -5031.71079759743  -5031.71079759743  -5031.73493670137
  Force two-norm initial, final = 2.5608731 0.2453972
  Force max component initial, final = 0.098019031 0.0093756234
  Final line search alpha, max atom move = 1 0.0093756234
  Iterations, force evaluations = 1 2

MPI task timing breakdown:
Section |  min time  |  avg time  |  max time  |%varavg| %total
---------------------------------------------------------------
Pair    | 6.368e-06  | 0.0026953  | 0.016422   |  11.5 |  2.32
Neigh   | 0          | 0          | 0          |   0.0 |  0.00
Comm    | 3.086e-06  | 0.0001675  | 0.0012977  |   0.0 |  0.14
Output  | 0          | 0          | 0          |   0.0 |  0.00
Modify  | 0          | 0          | 0          |   0.0 |  0.00
Other   |            | 0.1131     |            |       | 97.53

Nlocal:        56.6667 ave         357 max           0 min
Histogram: 10 0 0 0 0 0 0 0 0 2
Nghost:        126.667 ave         777 max           0 min
Histogram: 10 0 0 0 0 0 0 0 0 2
Neighs:              0 ave           0 max           0 min
Histogram: 12 0 0 0 0 0 0 0 0 0

Total # of neighbors = 0
Ave neighs/atom = 0
Neighbor list builds = 0
Dangerous builds = 0
#6----define computes------
variable nums equal count(all) #计算原子数目
variable toval equal 13.369*13.369*lz #计算系统总体积，单层石墨烯厚度为0.335nm
variable vol equal ${toval} #体系的初始体积
variable vol equal 7367.75928944225 
variable vatom equal v_vol/v_nums #单个原子体积
compute 1 all stress/atom NULL #计算体系中单原子应力
compute xalls all reduce sum c_1[1]
variable xstress equal (c_xalls)/(v_toval*10000)
compute yalls all reduce sum c_1[2]
variable ystress equal (c_yalls)/(v_toval*10000)
compute zalls all reduce sum c_1[3]
variable zstress equal (c_zalls)/(v_toval*10000)
#7---------relaxation-------------------------
timestep ${tstep}
timestep 0.001
#------------5 温度初始化------------------------------
velocity all create 300 4928459 dist gaussian units box
#------------------------------------------------------
dump   1 all atom 100 all-cy.lammpstrj
#fix    1 all npt temp 300 300  0.1 aniso 0 0  drag 1  #三个方向独立控压
fix  s all npt temp ${temperature} ${temperature} 0.1 y ${pressure} ${pressure} 10 x ${pressure} ${pressure} 10
fix  s all npt temp 300 ${temperature} 0.1 y ${pressure} ${pressure} 10 x ${pressure} ${pressure} 10
fix  s all npt temp 300 300 0.1 y ${pressure} ${pressure} 10 x ${pressure} ${pressure} 10
fix  s all npt temp 300 300 0.1 y 0 ${pressure} 10 x ${pressure} ${pressure} 10
fix  s all npt temp 300 300 0.1 y 0 0 10 x ${pressure} ${pressure} 10
fix  s all npt temp 300 300 0.1 y 0 0 10 x 0 ${pressure} 10
fix  s all npt temp 300 300 0.1 y 0 0 10 x 0 0 10
thermo                1000
thermo_modify       lost ignore
compute  2 all pe/atom
compute  pe all reduce sum c_2
variable PE equal "c_pe"
fix    pe all print 100 "${PE} " file PE.txt screen no
thermo  ${thermalstep}
thermo  100
#thermo_style  custom step pe ke etotal lx ly lz
run   ${relaxtime}
run   0
Per MPI rank memory allocation (min/avg/max) = 8.872 | 9.029 | 9.813 Mbytes
   Step          Temp          E_pair         E_mol          TotEng         Press          Volume    
         1   300           -5031.7349      0             -5005.4046      16.656796      1648912.4    
Loop time of 0.0242152 on 12 procs for 0 steps with 680 atoms

58.1% CPU use with 12 MPI tasks x 1 OpenMP threads

MPI task timing breakdown:
Section |  min time  |  avg time  |  max time  |%varavg| %total
---------------------------------------------------------------
Pair    | 0          | 0          | 0          |   0.0 |  0.00
Neigh   | 0          | 0          | 0          |   0.0 |  0.00
Comm    | 0          | 0          | 0          |   0.0 |  0.00
Output  | 0          | 0          | 0          |   0.0 |  0.00
Modify  | 0          | 0          | 0          |   0.0 |  0.00
Other   |            | 0.02422    |            |       |100.00

Nlocal:        56.6667 ave         340 max           0 min
Histogram: 10 0 0 0 0 0 0 0 0 2
Nghost:        126.667 ave         760 max           0 min
Histogram: 10 0 0 0 0 0 0 0 0 2
Neighs:              0 ave           0 max           0 min
Histogram: 12 0 0 0 0 0 0 0 0 0

Total # of neighbors = 0
Ave neighs/atom = 0
Neighbor list builds = 0
Dangerous builds = 0
#8 -------tension-----------------------------
unfix s
undump  1
unfix  pe
reset_timestep 0
fix avestress all ave/atom 1 ${dumpstep} ${dumpstep} c_1[1] c_1[2] c_1[3] c_1[4] c_1[5] c_1[6]
fix avestress all ave/atom 1 1000 ${dumpstep} c_1[1] c_1[2] c_1[3] c_1[4] c_1[5] c_1[6]
fix avestress all ave/atom 1 1000 1000 c_1[1] c_1[2] c_1[3] c_1[4] c_1[5] c_1[6]

#-----calculation of strain and Cumulative compression--------
variable                tmp equal "lz"
variable                L0 equal ${tmp}
variable                L0 equal 41.222809
variable                strain equal "(lz - v_L0)/v_L0"
variable                Cumulativels equal "(lz - v_L0)/10"
fix Step all print 100 "${strain} ${Cumulativels} ${zstress}" file grapoten.txt screen no

dump 2 all custom ${dumpstep} tension.xyz type x y z f_avestress[1] f_avestress[2] f_avestress[3] f_avestress[4] f_avestress[5] f_avestress[6]
dump 2 all custom 1000 tension.xyz type x y z f_avestress[1] f_avestress[2] f_avestress[3] f_avestress[4] f_avestress[5] f_avestress[6]

fix  1 all npt temp ${temperature} ${temperature} 0.1 y ${pressure} ${pressure} 10 x ${pressure} ${pressure} 10
fix  1 all npt temp 300 ${temperature} 0.1 y ${pressure} ${pressure} 10 x ${pressure} ${pressure} 10
fix  1 all npt temp 300 300 0.1 y ${pressure} ${pressure} 10 x ${pressure} ${pressure} 10
fix  1 all npt temp 300 300 0.1 y 0 ${pressure} 10 x ${pressure} ${pressure} 10
fix  1 all npt temp 300 300 0.1 y 0 0 10 x ${pressure} ${pressure} 10
fix  1 all npt temp 300 300 0.1 y 0 0 10 x 0 ${pressure} 10
fix  1 all npt temp 300 300 0.1 y 0 0 10 x 0 0 10

thermo_style custom step pe ke etotal lx ly lz
WARNING: New thermo_style command, previous thermo_modify settings will be lost (src/output.cpp:903)
fix   2 all deform 1 z erate ${deformrate} remap x units box
fix   2 all deform 1 z erate 0.005 remap x units box
fix   3 all ave/time 2 500 1000 v_xstress v_ystress v_zstress file pressure.out
run   ${totaltime}
run   100000
WARNING: Dump 2 includes no atom IDs and is not sorted by ID. This may complicate post-processing tasks or visualization (src/dump.cpp:221)
Per MPI rank memory allocation (min/avg/max) = 10.37 | 10.53 | 11.31 Mbytes
   Step         PotEng         KinEng         TotEng           Lx             Ly             Lz      
         0  -5031.7349      26.330292     -5005.4046      200            200            41.222809    
       100  -5015.794       13.329205     -5002.4647      200.00546      200.00639      41.24342     
       200  -5015.3671      17.411713     -4997.9554      200.00166      200.00416      41.264032    
       300  -5012.8744      20.272977     -4992.6014      200.00679      200.01206      41.284643    
       400  -5009.3783      22.49996      -4986.8784      200.00103      200.01116      41.305255    
       500  -5007.7255      26.195243     -4981.5302      200.00461      200.02161      41.325866    
       600  -5004.5876      27.104738     -4977.4829      199.99356      200.02123      41.346477    
       700  -5004.5858      28.669121     -4975.9167      199.99519      200.0359       41.367089    
       800  -5005.0006      27.46695      -4977.5336      199.98113      200.0378       41.3877      
       900  -5006.111       25.861491     -4980.2495      199.97971      200.05467      41.408312    
      1000  -5006.7299      25.174806     -4981.5551      199.9625       200.05865      41.428923    
      1100  -5006.1093      25.396402     -4980.7129      199.95867      200.07727      41.449534    
      1200  -5005.3474      26.931103     -4978.4163      199.93967      200.08235      41.470146    
      1300  -5003.8429      27.166933     -4976.676       199.93511      200.10205      41.490757    
      1400  -5004.7728      27.753714     -4977.0191      199.91588      200.10782      41.511369    
      1500  -5005.8341      26.863151     -4978.971       199.90967      200.12541      41.53198     
      1600  -5005.5573      25.30097      -4980.2563      199.89124      200.12925      41.552591    
      1700  -5004.5972      24.952776     -4979.6444      199.88689      200.14478      41.573203    
      1800  -5003.4725      25.772716     -4977.6998      199.87235      200.14717      41.593814    
      1900  -5002.5991      26.315779     -4976.2833      199.86866      200.15897      41.614426    
      2000  -5003.4909      27.102049     -4976.3889      199.8557       200.15847      41.635037    
      2100  -5003.6315      26.108143     -4977.5233      199.85389      200.16901      41.655648    
      2200  -5004.3334      25.871708     -4978.4617      199.84203      200.16823      41.67626     
      2300  -5003.3035      24.893603     -4978.4099      199.83962      200.17727      41.696871    
      2400  -5004.3447      27.140455     -4977.2043      199.82772      200.17625      41.717483    
      2500  -5001.5055      25.815998     -4975.6895      199.82553      200.18555      41.738094    
      2600  -5001.791       26.720798     -4975.0702      199.81312      200.18487      41.758706    
      2700  -5003.0571      27.044503     -4976.0126      199.80921      200.19369      41.779317    
      2800  -5003.0272      25.948357     -4977.0788      199.79509      200.19239      41.799928    
      2900  -5002.938       25.831105     -4977.1069      199.79045      200.20167      41.82054     
      3000  -5001.2931      25.948293     -4975.3448      199.77631      200.2013       41.841151    
      3100  -5001.7439      27.998713     -4973.7451      199.77087      200.21048      41.861763    
      3200  -5001.8894      27.958789     -4973.9306      199.75635      200.21069      41.882374    
      3300  -5001.392       26.851879     -4974.5401      199.74924      200.21908      41.902985    
      3400  -5000.8502      26.133701     -4974.7165      199.73414      200.21923      41.923597    
      3500  -5000.636       26.295541     -4974.3405      199.72703      200.2285       41.944208    
      3600  -4999.7863      26.145075     -4973.6413      199.71223      200.22935      41.96482     
      3700  -4998.6016      27.030935     -4971.5707      199.70308      200.23599      41.985431    
      3800  -4998.6149      27.799292     -4970.8156      199.68858      200.23754      42.006042    
      3900  -4999.8077      27.487761     -4972.3199      199.67923      200.2438       42.026654    
      4000  -4999.7218      26.43434      -4973.2875      199.66437      200.24492      42.047265    
      4100  -4999.0821      25.931625     -4973.1505      199.65293      200.24936      42.067877    
      4200  -4997.7222      25.964749     -4971.7575      199.63877      200.25179      42.088488    
      4300  -4997.6955      28.064899     -4969.6306      199.62676      200.25677      42.109099    
      4400  -4997.192       27.699215     -4969.4928      199.61217      200.25896      42.129711    
      4500  -4996.7425      26.750497     -4969.992       199.59846      200.26311      42.150322    
      4600  -4996.6297      26.464026     -4970.1657      199.58247      200.2664       42.170934    
      4700  -4996.6053      26.288548     -4970.3168      199.56721      200.2716       42.191545    
      4800  -4996.0971      25.600097     -4970.497       199.55013      200.27615      42.212156    
      4900  -4995.8996      24.97263      -4970.927       199.53357      200.28139      42.232768    
      5000  -4996.4305      25.929744     -4970.5008      199.51567      200.28569      42.253379    
      5100  -4994.6815      26.462696     -4968.2188      199.49821      200.29048      42.273991    
      5200  -4994.1288      27.191716     -4966.9371      199.48119      200.29606      42.294602    
      5300  -4993.407       26.338943     -4967.068       199.46248      200.29947      42.315213    
      5400  -4992.4885      24.462678     -4968.0258      199.44432      200.30348      42.335825    
      5500  -4992.9447      24.405414     -4968.5393      199.42531      200.30583      42.356436    
      5600  -4993.612       25.037059     -4968.575       199.40877      200.30997      42.377048    
      5700  -4991.2267      24.287119     -4966.9396      199.38951      200.31126      42.397659    
      5800  -4991.2231      26.540638     -4964.6825      199.3728       200.31405      42.41827     
      5900  -4991.104       27.505291     -4963.5987      199.3541       200.31401      42.438882    
      6000  -4991.249       27.345224     -4963.9038      199.33839      200.31589      42.459493    
      6100  -4991.194       26.023026     -4965.171       199.31975      200.31267      42.480105    
      6200  -4990.6355      25.785537     -4964.8499      199.30561      200.31329      42.500716    
      6300  -4990.2429      26.614067     -4963.6288      199.28739      200.30794      42.521327    
      6400  -4988.5936      25.981485     -4962.6121      199.27449      200.3077       42.541939    
      6500  -4988.6865      26.905096     -4961.7814      199.25457      200.30085      42.56255     
      6600  -4986.8111      25.655126     -4961.156       199.24164      200.30234      42.583162    
      6700  -4986.6394      26.00153      -4960.6378      199.21824      200.29553      42.603773    
      6800  -4985.3443      24.733938     -4960.6103      199.20282      200.29896      42.624385    
      6900  -4986.5951      26.050237     -4960.5448      199.1757       200.29317      42.644996    
      7000  -4985.5051      25.543276     -4959.9619      199.15861      200.3002       42.665607    
      7100  -4985.3293      27.177714     -4958.1516      199.12722      200.29564      42.686219    
      7200  -4982.7514      26.296083     -4956.4553      199.10857      200.3059       42.70683     
      7300  -4982.9825      26.493535     -4956.489       199.07301      200.30112      42.727442    
      7400  -4984.0609      25.79789      -4958.263       199.05165      200.31286      42.748053    
      7500  -4984.0221      26.390893     -4957.6312      199.01459      200.30989      42.768664    
      7600  -4982.7124      26.585476     -4956.1269      198.99229      200.32239      42.789276    
      7700  -4980.1909      25.997259     -4954.1937      198.95291      200.31844      42.809887    
      7800  -4979.4618      26.467042     -4952.9948      198.92985      200.33068      42.830499    
      7900  -4980.3849      26.562633     -4953.8223      198.89155      200.32664      42.85111     
      8000  -4980.7618      25.767288     -4954.9945      198.86631      200.33582      42.871721    
      8100  -4980.8415      26.737517     -4954.104       198.82886      200.32907      42.892333    
      8200  -4978.2661      26.376872     -4951.8892      198.80604      200.33633      42.912944    
      8300  -4976.4922      26.152493     -4950.3397      198.77008      200.32756      42.933556    
      8400  -4976.9438      26.723963     -4950.2199      198.74793      200.33094      42.954167    
      8500  -4976.2406      25.593643     -4950.6469      198.71386      200.32043      42.974778    
      8600  -4976.6285      24.687598     -4951.9409      198.69131      200.31933      42.99539     
      8700  -4976.6008      23.893405     -4952.7073      198.65879      200.30782      43.016001    
      8800  -4975.8376      25.010199     -4950.8274      198.63531      200.30557      43.036613    
      8900  -4974.9329      26.292859     -4948.6401      198.60297      200.29418      43.057224    
      9000  -4973.4559      26.791755     -4946.6642      198.57608      200.28975      43.077835    
      9100  -4972.0035      26.719339     -4945.2842      198.54282      200.28041      43.098447    
      9200  -4971.5878      26.645419     -4944.9424      198.51155      200.2758       43.119058    
      9300  -4972.1695      25.968817     -4946.2007      198.47505      200.26942      43.13967     
      9400  -4971.313       25.18245      -4946.1306      198.43791      200.26564      43.160281    
      9500  -4970.3223      25.990701     -4944.3316      198.39773      200.2626       43.180892    
      9600  -4969.0654      26.322286     -4942.7432      198.35513      200.26166      43.201504    
      9700  -4968.9521      27.30377      -4941.6483      198.31125      200.26257      43.222115    
      9800  -4967.6539      26.657701     -4940.9962      198.26383      200.26369      43.242727    
      9900  -4967.724       26.566576     -4941.1575      198.21491      200.2661       43.263338    
     10000  -4967.5141      25.483921     -4942.0301      198.16295      200.2674       43.283949    
     10100  -4966.527       25.575767     -4940.9513      198.1127       200.27195      43.304561    
     10200  -4964.9219      26.891992     -4938.03        198.05834      200.27345      43.325172    
     10300  -4963.2225      26.349885     -4936.8727      198.00569      200.27622      43.345784    
     10400  -4962.2468      25.872054     -4936.3747      197.9503       200.27493      43.366395    
     10500  -4962.1841      25.782373     -4936.4018      197.8982       200.27508      43.387006    
     10600  -4961.686       24.747248     -4936.9388      197.84386      200.27123      43.407618    
     10700  -4962.1665      25.419391     -4936.7471      197.79192      200.26732      43.428229    
     10800  -4959.6408      25.848219     -4933.7926      197.7396       200.25976      43.448841    
     10900  -4958.5779      26.776051     -4931.8019      197.68879      200.25125      43.469452    
     11000  -4958.1221      26.945333     -4931.1768      197.63834      200.24007      43.490063    
     11100  -4956.8746      25.380771     -4931.4938      197.5881       200.22749      43.510675    
     11200  -4957.1851      25.247289     -4931.9379      197.537        200.21265      43.531286    
     11300  -4955.8902      24.746047     -4931.1442      197.48618      200.19677      43.551898    
     11400  -4954.4014      26.682454     -4927.7189      197.43485      200.18122      43.572509    
     11500  -4954.172       27.866563     -4926.3055      197.38156      200.16447      43.593121    
     11600  -4953.4833      27.037147     -4926.4461      197.32618      200.14906      43.613732    
     11700  -4952.1324      25.125396     -4927.007       197.26609      200.13322      43.634343    
     11800  -4951.4383      25.284948     -4926.1533      197.20452      200.12055      43.654955    
     11900  -4950.577       26.550983     -4924.026       197.13934      200.10967      43.675566    
     12000  -4948.4762      26.918721     -4921.5575      197.07125      200.10109      43.696178    
     12100  -4947.9113      27.012803     -4920.8985      196.99724      200.09279      43.716789    
     12200  -4949.1383      25.882946     -4923.2553      196.92052      200.08727      43.7374      
     12300  -4946.5093      24.304189     -4922.2051      196.84091      200.08367      43.758012    
     12400  -4946.8712      27.054461     -4919.8167      196.75804      200.08168      43.778623    
     12500  -4944.7711      26.998475     -4917.7727      196.67278      200.0808       43.799235    
     12600  -4944.372       27.523531     -4916.8485      196.58365      200.07839      43.819846    
     12700  -4943.3399      25.807042     -4917.5329      196.49427      200.07747      43.840457    
     12800  -4943.7529      26.016039     -4917.7368      196.40316      200.07482      43.861069    
     12900  -4941.9878      25.615865     -4916.3719      196.31261      200.0711       43.88168     
     13000  -4941.4091      26.695535     -4914.7135      196.22034      200.06439      43.902292    
     13100  -4939.4857      26.079945     -4913.4058      196.13013      200.05694      43.922903    
     13200  -4937.7566      25.78473      -4911.9718      196.03913      200.04474      43.943514    
     13300  -4937.9412      27.46974      -4910.4715      195.95148      200.03282      43.964126    
     13400  -4935.373       26.648112     -4908.7249      195.86256      200.01478      43.984737    
     13500  -4935.2194      26.812622     -4908.4068      195.77591      199.99595      44.005349    
     13600  -4936.2223      27.088851     -4909.1335      195.68715      199.97105      44.02596     
     13700  -4933.9457      25.290902     -4908.6548      195.60271      199.94882      44.046571    
     13800  -4932.2498      25.230672     -4907.0191      195.51407      199.92125      44.067183    
     13900  -4931.5156      27.665588     -4903.85        195.42759      199.89633      44.087794    
     14000  -4930.5367      28.295815     -4902.2408      195.33456      199.86657      44.108406    
     14100  -4929.09        26.761434     -4902.3286      195.24398      199.84266      44.129017    
     14200  -4928.5474      26.090996     -4902.4564      195.14509      199.81475      44.149628    
     14300  -4928.2082      26.063301     -4902.1449      195.04871      199.79434      44.17024     
     14400  -4927.1663      26.212826     -4900.9535      194.94078      199.76967      44.190851    
     14500  -4924.2956      26.116995     -4898.1786      194.83619      199.7545       44.211463    
     14600  -4923.3462      27.499402     -4895.8468      194.72026      199.73446      44.232074    
     14700  -4923.6515      27.614226     -4896.0373      194.60847      199.72457      44.252685    
     14800  -4922.1158      25.635366     -4896.4804      194.48431      199.70859      44.273297    
     14900  -4922.3909      26.589428     -4895.8014      194.36432      199.70133      44.293908    
     15000  -4920.298       25.896879     -4894.4011      194.23322      199.68767      44.31452     
     15100  -4919.4119      27.33365      -4892.0783      194.10869      199.68324      44.335131    
     15200  -4917.1666      27.963006     -4889.2036      193.97511      199.67058      44.355742    
     15300  -4915.9482      26.732432     -4889.2158      193.84658      199.66378      44.376354    
     15400  -4916.4496      26.870005     -4889.5796      193.71133      199.64774      44.396965    
     15500  -4914.7733      25.886692     -4888.8866      193.58304      199.63835      44.417577    
     15600  -4914.4358      26.483834     -4887.952       193.44871      199.61821      44.438188    
     15700  -4912.2741      25.56451      -4886.7096      193.32229      199.60396      44.4588      
     15800  -4910.6571      25.878575     -4884.7785      193.19002      199.57783      44.479411    
     15900  -4909.9394      27.295557     -4882.6438      193.06603      199.55704      44.500022    
     16000  -4908.9014      27.319176     -4881.5822      192.93706      199.52588      44.520634    
     16100  -4908.0668      25.492769     -4882.574       192.81557      199.49936      44.541245    
     16200  -4907.6913      25.450471     -4882.2409      192.68933      199.46344      44.561857    
     16300  -4906.6541      25.955453     -4880.6986      192.5684       199.43077      44.582468    
     16400  -4904.5416      26.461573     -4878.08        192.44276      199.39184      44.603079    
     16500  -4903.2254      27.087863     -4876.1375      192.32088      199.35824      44.623691    
     16600  -4901.8783      26.400083     -4875.4782      192.1927       199.31961      44.644302    
     16700  -4901.8337      26.999429     -4874.8343      192.06585      199.28589      44.664914    
     16800  -4900.5137      26.154362     -4874.3594      191.93262      199.25063      44.685525    
     16900  -4900.0607      26.145766     -4873.9149      191.79944      199.22038      44.706136    
     17000  -4898.3673      25.583365     -4872.784       191.66024      199.18992      44.726748    
     17100  -4896.4786      26.527358     -4869.9512      191.52023      199.1649       44.747359    
     17200  -4895.433       27.668112     -4867.7649      191.37467      199.13954      44.767971    
     17300  -4893.9472      26.539185     -4867.408       191.22698      199.11688      44.788582    
     17400  -4894.1264      26.330087     -4867.7964      191.07678      199.09554      44.809193    
     17500  -4892.8856      25.80319      -4867.0824      190.92468      199.07678      44.829805    
     17600  -4890.7935      25.264601     -4865.5289      190.77031      199.0585       44.850416    
     17700  -4889.0852      25.49772      -4863.5875      190.61441      199.0398       44.871028    
     17800  -4889.1738      27.676913     -4861.4968      190.4586       199.0216       44.891639    
     17900  -4886.3489      26.781663     -4859.5672      190.30255      199.00151      44.91225     
     18000  -4885.1055      27.005467     -4858.1         190.14943      198.98248      44.932862    
     18100  -4884.8775      26.458619     -4858.4189      189.99338      198.95704      44.953473    
     18200  -4883.3754      24.917227     -4858.4581      189.84248      198.93341      44.974085    
     18300  -4882.8593      25.64888      -4857.2104      189.69076      198.90398      44.994696    
     18400  -4881.214       26.973936     -4854.2401      189.54422      198.87584      45.015307    
     18500  -4879.4232      27.394418     -4852.0288      189.39666      198.84218      45.035919    
     18600  -4878.6471      27.246453     -4851.4007      189.25293      198.80877      45.05653     
     18700  -4876.2251      25.310177     -4850.9149      189.10752      198.7705       45.077142    
     18800  -4876.3936      26.16357      -4850.23        188.96696      198.73423      45.097753    
     18900  -4876.2164      26.655276     -4849.5611      188.82514      198.69453      45.118364    
     19000  -4875.503       26.047495     -4849.4555      188.6842       198.65451      45.138976    
     19100  -4873.4122      25.487324     -4847.9249      188.54286      198.61489      45.159587    
     19200  -4871.1636      26.442689     -4844.721       188.40083      198.57464      45.180199    
     19300  -4869.736       27.084527     -4842.6515      188.25905      198.53707      45.20081     
     19400  -4867.8305      26.380506     -4841.45        188.11507      198.49926      45.221421    
     19500  -4868.1731      26.716451     -4841.4566      187.96985      198.46409      45.242033    
     19600  -4866.6741      24.848093     -4841.826       187.82103      198.42861      45.262644    
     19700  -4864.8253      24.912364     -4839.9129      187.67367      198.39847      45.283256    
     19800  -4863.8536      26.255463     -4837.5981      187.52197      198.36746      45.303867    
     19900  -4862.1485      26.516517     -4835.632       187.37139      198.34102      45.324478    
     20000  -4859.9462      26.228556     -4833.7176      187.21642      198.31274      45.34509     
     20100  -4858.675       26.787702     -4831.8873      187.06332      198.28825      45.365701    
     20200  -4856.029       26.001085     -4830.0279      186.90786      198.26275      45.386313    
     20300  -4855.9369      26.311888     -4829.625       186.75468      198.23973      45.406924    
     20400  -4855.7521      25.906616     -4829.8455      186.59865      198.21347      45.427536    
     20500  -4854.4643      25.624633     -4828.8397      186.44622      198.18965      45.448147    
     20600  -4852.4948      26.194681     -4826.3001      186.29271      198.1622       45.468758    
     20700  -4850.0318      27.01002      -4823.0218      186.14322      198.13664      45.48937     
     20800  -4848.6423      26.606559     -4822.0358      185.99374      198.10762      45.509981    
     20900  -4848.5629      26.719553     -4821.8433      185.84748      198.07829      45.530593    
     21000  -4847.0628      25.696212     -4821.3666      185.70183      198.045        45.551204    
     21100  -4845.6901      25.704845     -4819.9852      185.55973      198.01179      45.571815    
     21200  -4843.8285      27.172469     -4816.6561      185.42007      197.9769       45.592427    
     21300  -4840.5754      26.60733      -4813.968       185.28218      197.94004      45.613038    
     21400  -4840.3238      26.566948     -4813.7569      185.14662      197.90258      45.63365     
     21500  -4839.8936      26.170515     -4813.7231      185.01133      197.86186      45.654261    
     21600  -4838.6979      25.845986     -4812.852       184.87928      197.82333      45.674872    
     21700  -4837.1867      25.871819     -4811.3149      184.74627      197.78168      45.695484    
     21800  -4835.5061      26.793641     -4808.7124      184.61669      197.74424      45.716095    
     21900  -4833.1171      27.625133     -4805.4919      184.48273      197.70278      45.736707    
     22000  -4831.494       26.534157     -4804.9598      184.35288      197.66739      45.757318    
     22100  -4830.0698      25.022628     -4805.0471      184.21731      197.62825      45.777929    
     22200  -4830.3215      26.293942     -4804.0275      184.08723      197.59694      45.798541    
     22300  -4829.1927      26.462072     -4802.7307      183.95002      197.56108      45.819152    
     22400  -4826.7465      25.796581     -4800.95        183.81787      197.53345      45.839764    
     22500  -4824.6922      26.69168      -4798.0005      183.67922      197.50175      45.860375    
     22600  -4823.0757      27.118186     -4795.9576      183.54565      197.47684      45.880986    
     22700  -4822.2108      25.918813     -4796.292       183.40748      197.44826      45.901598    
     22800  -4823.4561      27.180355     -4796.2758      183.27347      197.4252       45.922209    
     22900  -4820.6436      26.001961     -4794.6416      183.13533      197.39826      45.942821    
     23000  -4818.0812      25.932951     -4792.1482      183.00109      197.37536      45.963432    
     23100  -4816.6198      27.132877     -4789.4869      182.86633      197.34999      45.984043    
     23200  -4815.6001      27.441431     -4788.1586      182.73325      197.32587      46.004655    
     23300  -4815.7501      26.337315     -4789.4128      182.60143      197.29983      46.025266    
     23400  -4814.2285      26.177023     -4788.0515      182.47042      197.27331      46.045878    
     23500  -4811.1928      26.052447     -4785.1404      182.34328      197.24712      46.066489    
     23600  -4809.683       27.121385     -4782.5616      182.2163       197.21725      46.0871      
     23700  -4807.6731      26.701957     -4780.9711      182.09514      197.18888      46.107712    
     23800  -4807.4272      26.813576     -4780.6136      181.97238      197.15475      46.128323    
     23900  -4806.5882      25.384059     -4781.2041      181.85578      197.12397      46.148935    
     24000  -4803.9985      24.900636     -4779.0978      181.73692      197.08766      46.169546    
     24100  -4802.2111      25.889288     -4776.3218      181.62484      197.05679      46.190157    
     24200  -4800.3701      26.311488     -4774.0586      181.50834      197.01875      46.210769    
     24300  -4800.0487      27.703925     -4772.3448      181.39908      196.98687      46.23138     
     24400  -4797.6988      26.451276     -4771.2475      181.28465      196.94844      46.251992    
     24500  -4797.3078      25.739792     -4771.568       181.17603      196.91658      46.272603    
     24600  -4795.7847      25.467059     -4770.3176      181.06361      196.88008      46.293215    
     24700  -4792.9217      25.813208     -4767.1085      180.9555       196.84929      46.313826    
     24800  -4791.2778      26.616401     -4764.6614      180.84372      196.81445      46.334437    
     24900  -4789.1799      25.966832     -4763.2131      180.73506      196.78454      46.355049    
     25000  -4788.6005      26.514425     -4762.086       180.62377      196.75302      46.37566     
     25100  -4786.5428      24.586807     -4761.9559      180.51504      196.72573      46.396272    
     25200  -4786.94        25.283121     -4761.6569      180.40332      196.69696      46.416883    
     25300  -4784.1228      25.30786      -4758.8149      180.29347      196.67148      46.437494    
     25400  -4783.42        27.464061     -4755.9559      180.18289      196.64628      46.458106    
     25500  -4781.6236      27.47376      -4754.1498      180.07192      196.62108      46.478717    
     25600  -4778.0658      25.569852     -4752.496       179.96354      196.59818      46.499329    
     25700  -4778.0744      26.849981     -4751.2245      179.8529       196.57304      46.51994     
     25800  -4776.9884      26.067882     -4750.9205      179.74541      196.5503       46.540551    
     25900  -4775.6892      25.674652     -4750.0146      179.63592      196.52489      46.561163    
     26000  -4773.5729      26.741056     -4746.8319      179.5314       196.50295      46.581774    
     26100  -4772.0871      28.160581     -4743.9265      179.42486      196.47681      46.602386    
     26200  -4769.7005      27.133306     -4742.5672      179.32245      196.45255      46.622997    
     26300  -4769.4423      27.657437     -4741.7848      179.21836      196.42554      46.643608    
     26400  -4767.1191      25.60564      -4741.5135      179.11796      196.40007      46.66422     
     26500  -4765.3088      23.716297     -4741.5925      179.01796      196.37264      46.684831    
     26600  -4764.1561      24.692386     -4739.4637      178.92006      196.34617      46.705443    
     26700  -4761.0821      25.598821     -4735.4833      178.82363      196.31902      46.726054    
     26800  -4760.5595      27.370465     -4733.189       178.72636      196.28925      46.746665    
     26900  -4758.286       26.975655     -4731.3104      178.63262      196.26276      46.767277    
     27000  -4757.3945      27.380943     -4730.0135      178.53663      196.23285      46.787888    
     27100  -4756.0371      26.03307      -4730.004       178.44513      196.20684      46.8085      
     27200  -4755.6086      26.616627     -4728.992       178.34937      196.17589      46.829111    
     27300  -4751.9548      26.072516     -4725.8823      178.25968      196.15038      46.849722    
     27400  -4748.9611      26.212978     -4722.7482      178.16493      196.11978      46.870334    
     27500  -4747.9668      26.561072     -4721.4058      178.07641      196.09582      46.890945    
     27600  -4747.0721      26.358081     -4720.714       177.98282      196.0661       46.911557    
     27700  -4744.8634      24.580406     -4720.283       177.89472      196.04248      46.932168    
     27800  -4743.6272      24.836526     -4718.7906      177.80162      196.01375      46.952779    
     27900  -4742.1474      27.345237     -4714.8022      177.71459      195.99089      46.973391    
     28000  -4740.568       28.142169     -4712.4258      177.62388      195.96323      46.994002    
     28100  -4738.3259      26.473985     -4711.8519      177.537        195.93941      47.014614    
     28200  -4738.1281      26.504653     -4711.6235      177.44836      195.91225      47.035225    
     28300  -4736.5434      26.382764     -4710.1606      177.36161      195.88708      47.055836    
     28400  -4733.7712      26.027694     -4707.7435      177.27531      195.86118      47.076448    
     28500  -4730.5251      26.69982      -4703.8253      177.18944      195.83564      47.097059    
     28600  -4729.3563      28.219416     -4701.1369      177.10504      195.81074      47.117671    
     28700  -4727.9929      26.905785     -4701.0871      177.01915      195.78426      47.138282    
     28800  -4727.6514      26.742055     -4700.9094      176.93461      195.75881      47.158893    
     28900  -4725.7047      25.896547     -4699.8082      176.85055      195.73326      47.179505    
     29000  -4723.77        25.813928     -4697.9561      176.76735      195.70889      47.200116    
     29100  -4720.1005      25.620322     -4694.4801      176.68375      195.68491      47.220728    
     29200  -4719.882       28.092427     -4691.7896      176.59983      195.66118      47.241339    
     29300  -4718.0558      26.851123     -4691.2047      176.51712      195.63954      47.261951    
     29400  -4716.431       25.958025     -4690.473       176.43144      195.61584      47.282562    
     29500  -4715.4982      26.459932     -4689.0382      176.35067      195.59739      47.303173    
     29600  -4714.3991      27.053433     -4687.3457      176.26475      195.57381      47.323785    
     29700  -4711.3693      25.895524     -4685.4737      176.18395      195.55623      47.344396    
     29800  -4709.3392      26.916701     -4682.4225      176.09853      195.53155      47.365008    
     29900  -4707.4105      27.436244     -4679.9743      176.02014      195.51459      47.385619    
     30000  -4706.2806      26.730404     -4679.5502      175.93552      195.48865      47.40623     
     30100  -4705.5634      26.271293     -4679.2921      175.85917      195.47027      47.426842    
     30200  -4702.1173      24.541814     -4677.5754      175.77676      195.44368      47.447453    
     30300  -4701.1808      25.962001     -4675.2188      175.70178      195.42428      47.468065    
     30400  -4699.2433      27.660229     -4671.583       175.6221       195.39539      47.488676    
     30500  -4695.6416      26.739567     -4668.902       175.55011      195.37518      47.509287    
     30600  -4696.4338      28.252681     -4668.1811      175.47293      195.34618      47.529899    
     30700  -4694.2708      26.76458      -4667.5062      175.40194      195.3219       47.55051     
     30800  -4692.952       26.213191     -4666.7388      175.32808      195.29298      47.571122    
     30900  -4691.286       25.540573     -4665.7454      175.25816      195.26638      47.591733    
     31000  -4690.0484      26.140382     -4663.908       175.18738      195.23746      47.612344    
     31100  -4686.5978      26.55038      -4660.0474      175.11859      195.20987      47.632956    
     31200  -4684.7401      26.90366      -4657.8365      175.05003      195.1815       47.653567    
     31300  -4684.6008      27.286858     -4657.314       174.97945      195.14972      47.674179    
     31400  -4681.6286      24.865078     -4656.7635      174.91368      195.12378      47.69479     
     31500  -4680.1157      24.974137     -4655.1415      174.84212      195.0924       47.715401    
     31600  -4679.2796      26.318427     -4652.9611      174.77624      195.06785      47.736013    
     31700  -4677.838       27.106631     -4650.7313      174.7038       195.03882      47.756624    
     31800  -4675.1015      26.635675     -4648.4658      174.63533      195.01617      47.777236    
     31900  -4673.6505      27.636154     -4646.0144      174.56212      194.99101      47.797847    
     32000  -4670.2905      27.425527     -4642.865       174.49065      194.9704       47.818458    
     32100  -4668.6643      27.579916     -4641.0844      174.41767      194.94993      47.83907     
     32200  -4668.4102      26.808075     -4641.6021      174.34203      194.92927      47.859681    
     32300  -4665.9907      25.381308     -4640.6094      174.26872      194.91308      47.880293    
     32400  -4664.4543      26.00407      -4638.4502      174.18999      194.89298      47.900904    
     32500  -4662.4507      26.80439      -4635.6463      174.11819      194.88149      47.921515    
     32600  -4659.6592      27.240774     -4632.4185      174.03722      194.86009      47.942127    
     32700  -4657.5311      27.352521     -4630.1786      173.9671       194.85117      47.962738    
     32800  -4657.3786      26.522586     -4630.856       173.88479      194.82712      47.98335     
     32900  -4655.0445      24.922306     -4630.1221      173.81528      194.81574      48.003961    
     33000  -4654.6663      26.878191     -4627.7881      173.73683      194.79185      48.024572    
     33100  -4651.0978      26.326546     -4624.7713      173.66935      194.77796      48.045184    
     33200  -4649.2773      27.159022     -4622.1183      173.59445      194.75175      48.065795    
     33300  -4648.1464      27.690368     -4620.456       173.52781      194.73206      48.086407    
     33400  -4645.3265      24.620361     -4620.7062      173.45959      194.70568      48.107018    
     33500  -4644.6917      24.97342      -4619.7183      173.3949       194.67899      48.12763     
     33600  -4642.1383      25.225613     -4616.9127      173.33262      194.65193      48.148241    
     33700  -4641.0795      27.390355     -4613.6892      173.2696       194.61953      48.168852    
     33800  -4638.4714      26.638924     -4611.8325      173.21237      194.59166      48.189464    
     33900  -4636.982       26.455069     -4610.527       173.14974      194.55477      48.210075    
     34000  -4635.269       26.180559     -4609.0884      173.09473      194.52528      48.230687    
     34100  -4633.5461      26.066166     -4607.4799      173.0341       194.48892      48.251298    
     34200  -4631.6254      25.967106     -4605.6583      172.9777       194.45777      48.271909    
     34300  -4630.0048      26.328325     -4603.6765      172.91774      194.42406      48.292521    
     34400  -4628.5191      26.751845     -4601.7672      172.85805      194.39279      48.313132    
     34500  -4625.7256      25.874248     -4599.8514      172.79728      194.36357      48.333744    
     34600  -4624.3882      26.843889     -4597.5443      172.73313      194.33487      48.354355    
     34700  -4621.0838      26.713761     -4594.37        172.67173      194.31231      48.374966    
     34800  -4619.45        27.48576      -4591.9642      172.60101      194.2849       48.395578    
     34900  -4618.7414      26.69289      -4592.0485      172.53689      194.26734      48.416189    
     35000  -4617.0801      25.653569     -4591.4266      172.46328      194.2442       48.436801    
     35100  -4615.2261      25.722249     -4589.5039      172.39547      194.23115      48.457412    
     35200  -4613.681       27.161451     -4586.5195      172.31934      194.21325      48.478023    
     35300  -4611.024       27.733587     -4583.2904      172.24765      194.20184      48.498635    
     35400  -4608.3149      26.412906     -4581.902       172.17086      194.18652      48.519246    
     35500  -4607.8498      25.099382     -4582.7504      172.09622      194.17398      48.539858    
     35600  -4607.2875      26.476391     -4580.8111      172.02141      194.16053      48.560469    
     35700  -4603.094       25.456739     -4577.6373      171.94732      194.14577      48.58108     
     35800  -4601.0669      26.445077     -4574.6218      171.87547      194.13131      48.601692    
     35900  -4599.7063      27.079494     -4572.6268      171.80196      194.1109       48.622303    
     36000  -4598.1777      25.484527     -4572.6931      171.73518      194.09485      48.642915    
     36100  -4597.8427      25.769503     -4572.0732      171.66413      194.0682       48.663526    
     36200  -4595.1651      25.915582     -4569.2495      171.60273      194.0492       48.684137    
     36300  -4593.7977      27.563288     -4566.2344      171.53634      194.01778      48.704749    
     36400  -4589.7589      26.018344     -4563.7405      171.47817      193.99217      48.72536     
     36500  -4588.5542      26.852924     -4561.7012      171.41646      193.95679      48.745972    
     36600  -4587.8703      26.610016     -4561.2603      171.3621       193.92634      48.766583    
     36700  -4586.0155      25.126453     -4560.8891      171.30491      193.88985      48.787194    
     36800  -4584.2858      26.126633     -4558.1592      171.25029      193.85447      48.807806    
     36900  -4580.985       26.214277     -4554.7707      171.19697      193.81957      48.828417    
     37000  -4579.3194      26.805261     -4552.5141      171.13858      193.77974      48.849029    
     37100  -4577.327       26.508593     -4550.8184      171.08663      193.7483       48.86964     
     37200  -4574.8792      25.220143     -4549.659       171.02559      193.70973      48.890251    
     37300  -4575.678       25.854844     -4549.8232      170.97102      193.681        48.910863    
     37400  -4572.8222      24.91243      -4547.9098      170.90747      193.64664      48.931474    
     37500  -4570.832       26.478585     -4544.3535      170.84871      193.62063      48.952086    
     37600  -4567.3651      25.730198     -4541.6349      170.78282      193.59198      48.972697    
     37700  -4566.555       27.39927      -4539.1557      170.71755      193.56868      48.993308    
     37800  -4564.6554      27.855845     -4536.7995      170.65052      193.54773      49.01392     
     37900  -4561.2093      26.356568     -4534.8527      170.57842      193.52647      49.034531    
     38000  -4560.3465      25.858586     -4534.4879      170.50881      193.51088      49.055143    
     38100  -4559.7953      26.283523     -4533.5118      170.43194      193.49055      49.075754    
     38200  -4556.9512      25.95562      -4530.9955      170.36161      193.4794       49.096366    
     38300  -4553.6808      26.624411     -4527.0564      170.28286      193.46048      49.116977    
     38400  -4552.4593      27.603983     -4524.8553      170.21146      193.44989      49.137588    
     38500  -4551.0743      27.273903     -4523.8004      170.13293      193.43057      49.1582      
     38600  -4549.0495      26.151511     -4522.898       170.05987      193.41602      49.178811    
     38700  -4546.9063      25.852515     -4521.0538      169.98611      193.39737      49.199423    
     38800  -4544.5182      26.205697     -4518.3125      169.91354      193.37801      49.220034    
     38900  -4541.3765      27.533093     -4513.8434      169.84552      193.35861      49.240645    
     39000  -4539.2738      26.957096     -4512.3167      169.7747       193.33067      49.261257    
     39100  -4538.7211      26.620622     -4512.1004      169.71024      193.30606      49.281868    
     39200  -4537.0296      26.037644     -4510.9919      169.64406      193.27431      49.30248     
     39300  -4535.5993      26.261311     -4509.338       169.58375      193.2448       49.323091    
     39400  -4532.3415      25.486754     -4506.8548      169.52256      193.2097       49.343702    
     39500  -4530.7769      27.562006     -4503.2149      169.46482      193.17451      49.364314    
     39600  -4528.0688      27.290877     -4500.7779      169.40601      193.13585      49.384925    
     39700  -4528.0136      27.116201     -4500.8974      169.34791      193.09698      49.405537    
     39800  -4525.2367      25.249691     -4499.987       169.29174      193.0594       49.426148    
     39900  -4523.6431      25.858884     -4497.7842      169.23318      193.01874      49.446759    
     40000  -4521.8156      26.942289     -4494.8733      169.17788      192.98214      49.467371    
     40100  -4518.5655      26.708701     -4491.8568      169.11619      192.94083      49.487982    
     40200  -4516.4106      26.866386     -4489.5442      169.05785      192.90589      49.508594    
     40300  -4516.3832      27.410904     -4488.9723      168.99352      192.86799      49.529205    
     40400  -4514.8864      26.37707      -4488.5094      168.93153      192.8362       49.549816    
     40500  -4511.9959      25.35821      -4486.6377      168.86447      192.80391      49.570428    
     40600  -4509.5299      26.263987     -4483.2659      168.79635      192.77483      49.591039    
     40700  -4506.5817      26.561161     -4480.0206      168.72594      192.74749      49.611651    
     40800  -4506.0103      27.532412     -4478.4779      168.65293      192.72102      49.632262    
     40900  -4503.909       26.623887     -4477.2851      168.58017      192.69808      49.652873    
     41000  -4501.4031      25.411484     -4475.9916      168.50443      192.67433      49.673485    
     41100  -4500.0362      25.440724     -4474.5955      168.42915      192.65397      49.694096    
     41200  -4497.9193      25.200674     -4472.7186      168.35029      192.63111      49.714708    
     41300  -4496.6134      26.953762     -4469.6596      168.27277      192.61014      49.735319    
     41400  -4493.7414      27.141175     -4466.6002      168.19484      192.58836      49.75593     
     41500  -4492.1657      27.152559     -4465.0131      168.1168       192.56493      49.776542    
     41600  -4491.2496      26.583321     -4464.6663      168.0411       192.54263      49.797153    
     41700  -4488.7079      25.260197     -4463.4477      167.96345      192.5158       49.817765    
     41800  -4487.5236      26.646689     -4460.8769      167.88874      192.48963      49.838376    
     41900  -4483.8788      25.798957     -4458.0798      167.81407      192.45985      49.858987    
     42000  -4482.6788      26.864603     -4455.8142      167.74086      192.43079      49.879599    
     42100  -4480.3339      26.456781     -4453.8771      167.66879      192.39945      49.90021     
     42200  -4479.4845      27.260491     -4452.224       167.59745      192.36597      49.920822    
     42300  -4475.9875      25.004089     -4450.9834      167.52766      192.33197      49.941433    
     42400  -4474.6783      24.980158     -4449.6981      167.45593      192.29385      49.962045    
     42500  -4473.0436      26.068274     -4446.9753      167.3888       192.25797      49.982656    
     42600  -4470.1436      26.918989     -4443.2246      167.31846      192.21827      50.003267    
     42700  -4468.0373      26.855376     -4441.1819      167.25303      192.18199      50.023879    
     42800  -4466.7112      26.437685     -4440.2735      167.18155      192.13837      50.04449     
     42900  -4464.8278      25.579804     -4439.248       167.11563      192.10073      50.065102    
     43000  -4463.3085      26.065695     -4437.2428      167.04311      192.05658      50.085713    
     43100  -4458.8664      26.584165     -4432.2823      166.97613      192.01933      50.106324    
     43200  -4457.1556      27.019435     -4430.1361      166.90382      191.97801      50.126936    
     43300  -4457.0465      27.038176     -4430.0084      166.83224      191.93885      50.147547    
     43400  -4456.0022      26.814319     -4429.1879      166.75886      191.90026      50.168159    
     43500  -4453.5749      26.64182      -4426.9331      166.68225      191.86067      50.18877     
     43600  -4449.8556      26.401077     -4423.4545      166.60855      191.82605      50.209381    
     43700  -4447.879       27.357642     -4420.5214      166.52874      191.7881       50.229993    
     43800  -4445.0545      25.598684     -4419.4558      166.45264      191.7548       50.250604    
     43900  -4446.1117      26.065203     -4420.0465      166.37093      191.71809      50.271216    
     44000  -4442.7368      25.129282     -4417.6075      166.29091      191.68559      50.291827    
     44100  -4440.4823      26.434972     -4414.0474      166.20677      191.64968      50.312438    
     44200  -4437.5592      26.308448     -4411.2508      166.12557      191.61872      50.33305     
     44300  -4435.7594      26.08322      -4409.6762      166.03993      191.58455      50.353661    
     44400  -4435.5953      26.102923     -4409.4924      165.95573      191.55254      50.374273    
     44500  -4433.9214      25.621622     -4408.2997      165.86982      191.51858      50.394884    
     44600  -4431.5986      26.016513     -4405.582       165.78384      191.48425      50.415495    
     44700  -4427.3133      24.573614     -4402.7397      165.69803      191.44937      50.436107    
     44800  -4426.4599      26.315697     -4400.1442      165.61235      191.41351      50.456718    
     44900  -4424.1291      26.32322      -4397.8059      165.52696      191.37812      50.47733     
     45000  -4421.7564      26.128671     -4395.6277      165.44071      191.34094      50.497941    
     45100  -4420.3248      26.468893     -4393.8559      165.35473      191.30274      50.518552    
     45200  -4419.0114      26.354705     -4392.6567      165.2684       191.26287      50.539164    
     45300  -4417.8814      26.653892     -4391.2275      165.18241      191.22249      50.559775    
     45400  -4413.724       24.858893     -4388.8651      165.09703      191.18292      50.580387    
     45500  -4412.4869      27.270744     -4385.2162      165.01041      191.14129      50.600998    
     45600  -4409.3463      26.81122      -4382.5351      164.92509      191.10118      50.621609    
     45700  -4409.3287      27.250339     -4382.0784      164.83472      191.05502      50.642221    
     45800  -4407.5745      26.031011     -4381.5435      164.75026      191.01527      50.662832    
     45900  -4405.4254      26.320629     -4379.1048      164.66044      190.96863      50.683444    
     46000  -4402.2777      26.427595     -4375.8501      164.57383      190.9262       50.704055    
     46100  -4400.1361      26.824422     -4373.3116      164.48554      190.88174      50.724666    
     46200  -4398.5073      26.312404     -4372.1949      164.39423      190.83379      50.745278    
     46300  -4397.4353      25.015377     -4372.42        164.30657      190.79157      50.765889    
     46400  -4395.1522      25.33097      -4369.8213      164.21216      190.74131      50.786501    
     46500  -4392.3409      25.896886     -4366.444       164.12519      190.70039      50.807112    
     46600  -4390.1716      26.57332      -4363.5983      164.0296       190.64967      50.827723    
     46700  -4388.0946      26.622971     -4361.4717      163.94132      190.60701      50.848335    
     46800  -4386.0245      25.762987     -4360.2615      163.84417      190.55461      50.868946    
     46900  -4386.1109      25.767316     -4360.3436      163.75295      190.51008      50.889558    
     47000  -4382.8813      24.743233     -4358.1381      163.65817      190.46066      50.910169    
     47100  -4381.0955      26.186616     -4354.9089      163.56384      190.41175      50.930781    
     47200  -4378.0443      26.026835     -4352.0175      163.47111      190.36516      50.951392    
     47300  -4376.4042      27.066401     -4349.3378      163.37151      190.31111      50.972003    
     47400  -4374.0031      26.881802     -4347.1213      163.27855      190.26583      50.992615    
     47500  -4371.4834      25.441017     -4346.0424      163.17657      190.21166      51.013226    
     47600  -4371.8429      26.614606     -4345.2283      163.08081      190.16525      51.033838    
     47700  -4368.2021      25.356865     -4342.8452      162.97973      190.11321      51.054449    
     47800  -4365.7224      26.971229     -4338.7512      162.8799       190.06477      51.07506     
     47900  -4362.8491      26.717131     -4336.132       162.77737      190.01391      51.095672    
     48000  -4361.8737      27.028735     -4334.845       162.6732       189.96286      51.116283    
     48100  -4360.1755      26.636059     -4333.5394      162.56993      189.91482      51.136895    
     48200  -4357.9918      26.286357     -4331.7054      162.46218      189.86252      51.157506    
     48300  -4355.6774      26.461905     -4329.2155      162.35876      189.81689      51.178117    
     48400  -4351.8082      26.912023     -4324.8962      162.2481       189.76396      51.198729    
     48500  -4349.4562      27.005095     -4322.4511      162.14129      189.7166       51.21934     
     48600  -4349.0163      26.577355     -4322.4389      162.03097      189.66584      51.239952    
     48700  -4347.6569      26.218541     -4321.4383      161.91864      189.61402      51.260563    
     48800  -4345.5272      25.809665     -4319.7175      161.81134      189.56848      51.281174    
     48900  -4343.654       26.554079     -4317.1         161.69528      189.51272      51.301786    
     49000  -4340.6057      27.247673     -4313.3581      161.58719      189.46702      51.322397    
     49100  -4338.8833      28.172667     -4310.7107      161.46952      189.41018      51.343009    
     49200  -4337.3166      26.497312     -4310.8193      161.35714      189.36071      51.36362     
     49300  -4335.377       25.715496     -4309.6615      161.24149      189.30675      51.384231    
     49400  -4333.2987      26.236519     -4307.0622      161.12696      189.25348      51.404843    
     49500  -4330.7684      26.725419     -4304.0429      161.01301      189.19976      51.425454    
     49600  -4326.6338      25.753057     -4300.8807      160.89653      189.14187      51.446066    
     49700  -4326.1717      26.886181     -4299.2855      160.78346      189.08703      51.466677    
     49800  -4325.6218      26.328451     -4299.2934      160.66459      189.02435      51.487288    
     49900  -4322.6796      25.147181     -4297.5324      160.55439      188.96975      51.5079      
     50000  -4320.7915      26.27959      -4294.5119      160.43668      188.90418      51.528511    
     50100  -4317.5567      26.799652     -4290.757       160.32578      188.84615      51.549123    
     50200  -4316.2039      27.569482     -4288.6344      160.20891      188.77999      51.569734    
     50300  -4315.3442      26.369078     -4288.9751      160.09548      188.71672      51.590345    
     50400  -4313.6075      26.601639     -4287.0059      159.98054      188.65066      51.610957    
     50500  -4309.5353      25.514993     -4284.0203      159.86543      188.58355      51.631568    
     50600  -4308.3095      27.338311     -4280.9712      159.75211      188.51806      51.65218     
     50700  -4306.2825      27.338915     -4278.9436      159.63616      188.45025      51.672791    
     50800  -4304.373       25.541546     -4278.8315      159.52027      188.38325      51.693402    
     50900  -4301.989       24.690563     -4277.2984      159.40225      188.31445      51.714014    
     51000  -4300.6793      26.280775     -4274.3985      159.28578      188.24821      51.734625    
     51100  -4297.0572      25.694662     -4271.3626      159.16542      188.1807       51.755237    
     51200  -4295.6335      26.473529     -4269.16        159.04566      188.11481      51.775848    
     51300  -4294.3279      27.015343     -4267.3125      158.92701      188.05254      51.79646     
     51400  -4292.0891      26.636368     -4265.4527      158.80097      187.98488      51.817071    
     51500  -4289.4302      25.717668     -4263.7125      158.67976      187.92384      51.837682    
     51600  -4287.7739      25.943125     -4261.8307      158.55434      187.8607       51.858294    
     51700  -4286.4288      26.700134     -4259.7287      158.42673      187.79848      51.878905    
     51800  -4283.2038      26.165179     -4257.0386      158.3014       187.74143      51.899517    
     51900  -4281.4828      27.135506     -4254.3473      158.16916      187.67984      51.920128    
     52000  -4280.216       27.434978     -4252.781       158.04225      187.62615      51.940739    
     52100  -4277.2697      25.027694     -4252.242       157.90745      187.56372      51.961351    
     52200  -4275.9266      25.384255     -4250.5424      157.78046      187.51094      51.981962    
     52300  -4273.3551      26.301511     -4247.0536      157.64617      187.44927      52.002574    
     52400  -4270.7142      27.551716     -4243.1625      157.51849      187.39569      52.023185    
     52500  -4268.4637      26.86106      -4241.6026      157.38513      187.33392      52.043796    
     52600  -4267.1648      26.521476     -4240.6433      157.25764      187.27817      52.064408    
     52700  -4264.8693      25.509749     -4239.3595      157.12744      187.21571      52.085019    
     52800  -4262.9645      25.862259     -4237.1022      156.99961      187.15475      52.105631    
     52900  -4259.9659      27.118018     -4232.8478      156.87426      187.09424      52.126242    
     53000  -4257.5244      27.644728     -4229.8797      156.74688      187.02818      52.146853    
     53100  -4256.1911      27.067725     -4229.1234      156.62538      186.96575      52.167465    
     53200  -4254.4902      26.476325     -4228.0138      156.50199      186.8974       52.188076    
     53300  -4253.5777      27.257144     -4226.3206      156.3834       186.83216      52.208688    
     53400  -4250.5873      26.357414     -4224.2299      156.2623       186.75933      52.229299    
     53500  -4247.552       25.857922     -4221.6941      156.14878      186.69427      52.24991     
     53600  -4245.9277      27.048016     -4218.8797      156.03084      186.62099      52.270522    
     53700  -4243.0527      26.286282     -4216.7664      155.91745      186.55129      52.291133    
     53800  -4241.5911      25.605001     -4215.9861      155.80405      186.48024      52.311745    
     53900  -4240.0552      25.285327     -4214.7699      155.68925      186.40664      52.332356    
     54000  -4237.7673      25.869401     -4211.8979      155.57961      186.33794      52.352967    
     54100  -4234.1874      26.878657     -4207.3087      155.46545      186.2643       52.373579    
     54200  -4232.0976      27.023026     -4205.0746      155.35752      186.1976       52.39419     
     54300  -4231.0023      26.770073     -4204.2323      155.24435      186.12612      52.414802    
     54400  -4230.0693      27.058078     -4203.0112      155.13413      186.05955      52.435413    
     54500  -4227.0974      25.878184     -4201.2192      155.0218       185.99305      52.456024    
     54600  -4225.407       26.283705     -4199.1233      154.91161      185.93072      52.476636    
     54700  -4222.2639      25.793121     -4196.4708      154.79834      185.86787      52.497247    
     54800  -4220.17        27.160153     -4193.0098      154.68651      185.80813      52.517859    
     54900  -4218.167       27.160022     -4191.007       154.57485      185.75062      52.53847     
     55000  -4216.177       25.588027     -4190.589       154.45917      185.69198      52.559081    
     55100  -4214.8417      26.034113     -4188.8076      154.34973      185.64071      52.579693    
     55200  -4212.3828      26.012669     -4186.3701      154.23408      185.58519      52.600304    
     55300  -4209.971       26.758391     -4183.2126      154.1229       185.53578      52.620916    
     55400  -4206.7844      27.794351     -4178.99        154.01061      185.4861       52.641527    
     55500  -4205.1583      27.246316     -4177.912       153.8982       185.4362       52.662138    
     55600  -4204.3861      27.15174      -4177.2344      153.78764      185.38863      52.68275     
     55700  -4201.372       25.759537     -4175.6125      153.6779       185.34022      52.703361    
     55800  -4199.2559      25.55915      -4173.6968      153.57108      185.29303      52.723973    
     55900  -4197.368       25.791674     -4171.5764      153.46589      185.24616      52.744584    
     56000  -4195.4856      25.961192     -4169.5244      153.36031      185.19602      52.765196    
     56100  -4193.5602      26.476352     -4167.0839      153.26006      185.15028      52.785807    
     56200  -4190.6722      26.243689     -4164.4285      153.15759      185.09708      52.806418    
     56300  -4187.9199      26.080127     -4161.8397      153.06308      185.05139      52.82703     
     56400  -4187.1661      27.171359     -4159.9947      152.96476      184.99478      52.847641    
     56500  -4185.6502      26.154765     -4159.4954      152.87682      184.94861      52.868253    
     56600  -4182.576       24.776713     -4157.7993      152.78423      184.89265      52.888864    
     56700  -4179.6404      25.286891     -4154.3535      152.6991       184.84214      52.909475    
     56800  -4177.3096      26.546803     -4150.7628      152.61304      184.78612      52.930087    
     56900  -4175.4994      27.138252     -4148.3612      152.53038      184.7314       52.950698    
     57000  -4174.7275      26.405711     -4148.3218      152.45103      184.67811      52.97131     
     57100  -4172.3748      25.179468     -4147.1953      152.37144      184.621        52.991921    
     57200  -4170.5195      26.085074     -4144.4345      152.29711      184.56983      53.012532    
     57300  -4167.9043      27.230033     -4140.6743      152.21832      184.51148      53.033144    
     57400  -4164.9908      27.279634     -4137.7112      152.14789      184.46318      53.053755    
     57500  -4163.6192      26.773011     -4136.8462      152.06863      184.40448      53.074367    
     57600  -4162.4752      26.38291      -4136.0923      152.00123      184.36007      53.094978    
     57700  -4160.0032      26.437055     -4133.5661      151.92376      184.30548      53.115589    
     57800  -4156.8082      26.59597      -4130.2122      151.85435      184.26176      53.136201    
     57900  -4155.126       27.906783     -4127.2192      151.78079      184.21583      53.156812    
     58000  -4151.7484      25.914274     -4125.8341      151.7074       184.17149      53.177424    
     58100  -4150.4484      24.883964     -4125.5644      151.63708      184.13305      53.198035    
     58200  -4148.5875      25.467305     -4123.1202      151.56142      184.09079      53.218646    
     58300  -4145.0107      25.857299     -4119.1534      151.49191      184.05674      53.239258    
     58400  -4143.0603      26.93671      -4116.1236      151.4183       184.02052      53.259869    
     58500  -4141.4465      26.968725     -4114.4777      151.34554      183.98677      53.280481    
     58600  -4140.4526      27.292607     -4113.16        151.27608      183.95807      53.301092    
     58700  -4137.1685      26.032951     -4111.1356      151.20101      183.92427      53.321703    
     58800  -4134.9171      26.171302     -4108.7458      151.13336      183.89898      53.342315    
     58900  -4131.8448      25.197149     -4106.6477      151.06014      183.86691      53.362926    
     59000  -4131.4348      26.207164     -4105.2276      150.99429      183.84177      53.383538    
     59100  -4129.7542      25.780915     -4103.9733      150.92605      183.81251      53.404149    
     59200  -4127.449       25.939691     -4101.5093      150.86073      183.78511      53.42476     
     59300  -4124.2833      26.996326     -4097.2869      150.79572      183.75597      53.445372    
     59400  -4121.1082      27.103123     -4094.005       150.73198      183.72591      53.465983    
     59500  -4118.866       26.309928     -4092.5561      150.67438      183.70036      53.486595    
     59600  -4117.9179      26.698446     -4091.2195      150.61032      183.66401      53.507206    
     59700  -4115.0929      26.123834     -4088.969       150.55972      183.64338      53.527817    
     59800  -4113.4408      26.414153     -4087.0267      150.49841      183.6038       53.548429    
     59900  -4111.4884      26.593581     -4084.8949      150.45013      183.57902      53.56904     
     60000  -4108.8201      25.528858     -4083.2912      150.39405      183.54003      53.589652    
     60100  -4107.7389      26.0381       -4081.7008      150.34837      183.51225      53.610263    
     60200  -4104.5346      25.525324     -4079.0093      150.29653      183.47371      53.630875    
     60300  -4101.3725      26.617072     -4074.7554      150.2525       183.44343      53.651486    
     60400  -4099.0449      26.869197     -4072.1757      150.2066       183.40742      53.672097    
     60500  -4097.4147      26.475625     -4070.9391      150.16239      183.37265      53.692709    
     60600  -4095.8147      26.396448     -4069.4182      150.12088      183.33888      53.71332     
     60700  -4092.8574      25.764126     -4067.0933      150.07714      183.30172      53.733932    
     60800  -4090.9905      26.716894     -4064.2736      150.03717      183.26912      53.754543    
     60900  -4086.8214      24.981988     -4061.8394      149.99464      183.23345      53.775154    
     61000  -4086.7942      26.429811     -4060.3644      149.95613      183.20297      53.795766    
     61100  -4085.6803      26.196833     -4059.4835      149.91646      183.17135      53.816377    
     61200  -4083.1873      26.050886     -4057.1364      149.87453      183.13884      53.836989    
     61300  -4080.1174      27.228105     -4052.8893      149.83595      183.11019      53.8576      
     61400  -4076.2307      26.817809     -4049.4129      149.79272      183.07847      53.878211    
     61500  -4074.2309      26.828249     -4047.4026      149.75479      183.05508      53.898823    
     61600  -4071.681       25.37693      -4046.3041      149.71126      183.0277       53.919434    
     61700  -4070.6378      26.216991     -4044.4208      149.672        183.00474      53.940046    
     61800  -4068.8947      26.716228     -4042.1784      149.63082      182.98203      53.960657    
     61900  -4065.6686      24.993699     -4040.6749      149.58787      182.95756      53.981268    
     62000  -4065.0275      25.469526     -4039.558       149.54875      182.94015      54.00188     
     62100  -4061.6674      25.148257     -4036.5192      149.5035       182.91689      54.022491    
     62200  -4057.5701      25.601046     -4031.969       149.46515      182.9037       54.043103    
     62300  -4055.9962      26.903555     -4029.0926      149.41711      182.8787       54.063714    
     62400  -4054.3212      27.001382     -4027.3199      149.38342      182.87053      54.084325    
     62500  -4051.5895      25.417846     -4026.1717      149.33371      182.84398      54.104937    
     62600  -4049.8849      26.130031     -4023.7549      149.29934      182.83521      54.125548    
     62700  -4046.3836      25.227831     -4021.1558      149.25225      182.81135      54.14616     
     62800  -4044.9954      26.913447     -4018.082       149.21695      182.80077      54.166771    
     62900  -4041.3844      26.392492     -4014.992       149.17391      182.77929      54.187382    
     63000  -4039.723       25.893508     -4013.8295      149.13757      182.7652       54.207994    
     63100  -4038.8128      26.129418     -4012.6834      149.09813      182.74565      54.228605    
     63200  -4036.3629      26.337529     -4010.0253      149.06361      182.73056      54.249217    
     63300  -4032.4512      26.400643     -4006.0506      149.02454      182.70654      54.269828    
     63400  -4029.5536      27.864067     -4001.6896      148.99309      182.69057      54.290439    
     63500  -4027.7736      28.092105     -3999.6815      148.95842      182.66666      54.311051    
     63600  -4024.5907      26.475428     -3998.1152      148.92791      182.64644      54.331662    
     63700  -4022.9481      26.550983     -3996.3971      148.89587      182.62127      54.352274    
     63800  -4020.9436      26.233817     -3994.7098      148.86855      182.59981      54.372885    
     63900  -4018.0523      25.265519     -3992.7868      148.83799      182.57155      54.393496    
     64000  -4016.2489      27.013454     -3989.2355      148.81362      182.5497       54.414108    
     64100  -4013.5329      28.586853     -3984.9461      148.78411      182.51982      54.434719    
     64200  -4009.7634      27.480441     -3982.283       148.76145      182.49757      54.455331    
     64300  -4008.7069      27.00744      -3981.6995      148.7338       182.46927      54.475942    
     64400  -4006.294       26.472294     -3979.8217      148.70942      182.44498      54.496553    
     64500  -4004.6898      27.3557       -3977.3341      148.68278      182.41848      54.517165    
     64600  -4000.5585      25.749401     -3974.8091      148.65763      182.3941       54.537776    
     64700  -3998.751       26.493488     -3972.2576      148.63098      182.36912      54.558388    
     64800  -3996.0935      25.877947     -3970.2156      148.60495      182.34633      54.578999    
     64900  -3993.3738      25.584007     -3967.7897      148.57772      182.3238       54.599611    
     65000  -3991.5383      26.764854     -3964.7734      148.54997      182.30218      54.620222    
     65100  -3987.4301      26.96762      -3960.4625      148.52063      182.28007      54.640833    
     65200  -3983.9764      27.398074     -3956.5783      148.49334      182.26144      54.661445    
     65300  -3981.2761      25.656174     -3955.6199      148.46417      182.24256      54.682056    
     65400  -3980.5792      26.522969     -3954.0562      148.43506      182.22526      54.702668    
     65500  -3977.3149      25.856701     -3951.4582      148.40363      182.20717      54.723279    
     65600  -3975.1154      26.196245     -3948.9191      148.37486      182.19338      54.74389     
     65700  -3973.6843      26.598886     -3947.0854      148.34138      182.17561      54.764502    
     65800  -3969.699       24.344459     -3945.3545      148.31226      182.16335      54.785113    
     65900  -3969.282       26.436684     -3942.8453      148.27978      182.14697      54.805725    
     66000  -3963.6187      25.939988     -3937.6787      148.24884      182.13344      54.826336    
     66100  -3960.9275      26.752323     -3934.1751      148.21715      182.118        54.846947    
     66200  -3958.3558      26.261338     -3932.0945      148.18599      182.1026       54.867559    
     66300  -3957.0593      26.110148     -3930.9491      148.15751      182.08994      54.88817     
     66400  -3952.6746      24.714372     -3927.9602      148.12507      182.07148      54.908782    
     66500  -3952.2697      27.498807     -3924.7708      148.09698      182.05814      54.929393    
     66600  -3947.8768      25.973339     -3921.9034      148.0668       182.03984      54.950004    
     66700  -3946.9363      26.351215     -3920.585       148.03944      182.02451      54.970616    
     66800  -3944.0512      25.057594     -3918.9936      148.01112      182.0059       54.991227    
     66900  -3940.8596      25.760259     -3915.0993      147.98459      181.9877       55.011839    
     67000  -3937.3315      26.408506     -3910.923       147.95751      181.9671       55.03245     
     67100  -3934.8672      27.362569     -3907.5046      147.93228      181.94796      55.053061    
     67200  -3931.6151      26.686744     -3904.9283      147.90661      181.92655      55.073673    
     67300  -3929.5448      27.060398     -3902.4844      147.88234      181.90604      55.094284    
     67400  -3926.9319      27.311161     -3899.6208      147.85811      181.88474      55.114896    
     67500  -3922.7312      25.758432     -3896.9728      147.83339      181.86153      55.135507    
     67600  -3920.2203      26.129417     -3894.0909      147.81181      181.84121      55.156118    
     67700  -3918.4156      27.269085     -3891.1465      147.78665      181.81511      55.17673     
     67800  -3915.1421      26.74075      -3888.4014      147.76559      181.79449      55.197341    
     67900  -3912.3215      26.109033     -3886.2125      147.74112      181.76917      55.217953    
     68000  -3910.2837      27.168902     -3883.1148      147.71892      181.74709      55.238564    
     68100  -3906.5327      26.479908     -3880.0528      147.69605      181.72407      55.259175    
     68200  -3903.5714      26.456048     -3877.1154      147.67133      181.69989      55.279787    
     68300  -3901.0397      26.924301     -3874.1154      147.6486       181.67923      55.300398    
     68400  -3896.3931      25.109795     -3871.2833      147.62359      181.65652      55.32101     
[...]
     81600  -4691.8286      29.777179     -4662.0514      141.44115      176.39158      58.041715    
     81700  -4692.0752      26.154664     -4665.9205      141.32361      176.28845      58.062326    
     81800  -4694.5545      24.556078     -4669.9984      141.21424      176.18635      58.082938    
     81900  -4694.5965      23.717901     -4670.8786      141.10611      176.08355      58.103549    
     82000  -4693.0033      24.557454     -4668.4458      141.00179      175.98657      58.124161    
     82100  -4691.2712      27.238996     -4664.0322      140.89112      175.87968      58.144772    
     82200  -4690.6684      29.055929     -4661.6125      140.78338      175.77504      58.165383    
     82300  -4692.773       28.876341     -4663.8967      140.66558      175.6583       58.185995    
     82400  -4694.1646      24.948644     -4669.216       140.55829      175.55455      58.206606    
     82500  -4696.2018      24.154797     -4672.047       140.44278      175.43963      58.227218    
     82600  -4695.6623      24.109393     -4671.5529      140.33117      175.33826      58.247829    
     82700  -4695.4071      27.026517     -4668.3806      140.20924      175.22334      58.268441    
     82800  -4693.2723      27.984598     -4665.2877      140.09326      175.11846      58.289052    
     82900  -4692.3691      27.609665     -4664.7595      139.97322      175.00871      58.309663    
     83000  -4693.2573      26.776768     -4666.4805      139.85514      174.90471      58.330275    
     83100  -4693.4872      24.638466     -4668.8487      139.73         174.79564      58.350886    
     83200  -4695.2333      25.426976     -4669.8064      139.6044       174.69455      58.371498    
     83300  -4693.7449      25.163782     -4668.5812      139.48089      174.59104      58.392109    
     83400  -4692.9193      27.425203     -4665.4941      139.36171      174.49001      58.41272     
     83500  -4691.0012      27.771201     -4663.23        139.23852      174.38646      58.433332    
     83600  -4689.8878      28.481313     -4661.4065      139.11159      174.27848      58.453943    
     83700  -4686.3877      32.742992     -4653.6447      138.99021      174.17368      58.474555    
     83800  -4690.9333      26.438604     -4664.4947      138.86794      174.05787      58.495166    
     83900  -4694.2128      23.059337     -4671.1535      138.7477       173.94251      58.515777    
     84000  -4694.5203      23.723857     -4670.7965      138.62583      173.82484      58.536389    
     84100  -4690.4518      25.96606      -4664.4857      138.50996      173.71678      58.557       
     84200  -4685.7413      28.556764     -4657.1845      138.3899       173.60172      58.577612    
     84300  -4685.1167      29.609385     -4655.5073      138.27624      173.49159      58.598223    
     84400  -4687.1285      26.812294     -4660.3162      138.16089      173.36954      58.618834    
     84500  -4689.0172      23.473765     -4665.5434      138.04782      173.24823      58.639446    
     84600  -4690.8926      24.265064     -4666.6276      137.93764      173.13001      58.660057    
     84700  -4688.057       24.732071     -4663.3249      137.82843      173.02143      58.680669    
     84800  -4684.748       26.798219     -4657.9498      137.71317      172.90362      58.70128     
     84900  -4684.7527      29.55497      -4655.1978      137.60071      172.79827      58.721891    
     85000  -4684.3353      26.867219     -4657.4681      137.48007      172.68457      58.742503    
     85100  -4686.8323      25.264899     -4661.5674      137.36362      172.58018      58.763114    
     85200  -4688.1192      24.37677      -4663.7424      137.24252      172.47474      58.783726    
     85300  -4687.0742      24.636503     -4662.4377      137.12968      172.38196      58.804337    
     85400  -4684.1168      25.816526     -4658.3003      137.01602      172.28071      58.824948    
     85500  -4683.472       29.052586     -4654.4194      136.90348      172.17577      58.84556     
     85600  -4682.1026      27.958932     -4654.1437      136.79251      172.0767       58.866171    
     85700  -4682.6806      25.338656     -4657.342       136.68004      171.97697      58.886783    
     85800  -4684.8695      24.475096     -4660.3944      136.57155      171.87983      58.907394    
     85900  -4684.7388      24.211576     -4660.5273      136.46845      171.78515      58.928005    
     86000  -4683.0027      25.639424     -4657.3633      136.36423      171.68918      58.948617    
     86100  -4681.1672      27.653504     -4653.5137      136.26047      171.58968      58.969228    
     86200  -4681.7906      28.894597     -4652.896       136.16435      171.49782      58.98984     
     86300  -4681.3958      26.019741     -4655.3761      136.06913      171.40239      59.010451    
     86400  -4684.0945      26.214305     -4657.8802      135.97451      171.29904      59.031062    
     86500  -4682.4082      24.155587     -4658.2526      135.88602      171.20718      59.051674    
     86600  -4682.7336      26.690659     -4656.0429      135.7986       171.11177      59.072285    
     86700  -4680.004       27.452773     -4652.5513      135.7111       171.02213      59.092897    
     86800  -4678.2977      27.626142     -4650.6715      135.62024      170.93258      59.113508    
     86900  -4678.0396      26.385418     -4651.6542      135.53029      170.84601      59.13412     
     87000  -4680.0187      25.697608     -4654.3211      135.43985      170.76794      59.154731    
     87100  -4680.2299      24.175424     -4656.0545      135.34736      170.69353      59.175342    
     87200  -4679.4003      24.173161     -4655.2272      135.25089      170.61499      59.195954    
     87300  -4677.9936      25.682441     -4652.3111      135.16571      170.54621      59.216565    
     87400  -4676.1291      26.714592     -4649.4146      135.0829       170.47295      59.237177    
     87500  -4677.1762      28.150302     -4649.0259      135.00331      170.39492      59.257788    
     87600  -4677.7101      25.842058     -4651.868       134.92296      170.31153      59.278399    
     87700  -4679.4648      24.845099     -4654.6197      134.84804      170.23633      59.299011    
     87800  -4679.4495      24.447783     -4655.0017      134.77801      170.16662      59.319622    
     87900  -4678.4559      25.852418     -4652.6035      134.70602      170.10002      59.340234    
     88000  -4677.775       28.312727     -4649.4623      134.63482      170.02744      59.360845    
     88100  -4677.0564      28.513907     -4648.5425      134.56397      169.95642      59.381456    
     88200  -4678.0685      27.655938     -4650.4125      134.49473      169.88736      59.402068    
     88300  -4678.2763      26.010253     -4652.2661      134.42749      169.81958      59.422679    
     88400  -4679.1371      26.164121     -4652.973       134.36377      169.75476      59.443291    
     88500  -4676.2953      24.635297     -4651.66        134.30242      169.68936      59.463902    
     88600  -4676.942       27.876117     -4649.0659      134.24133      169.62256      59.484513    
     88700  -4674.2128      26.963765     -4647.249       134.18604      169.56384      59.505125    
     88800  -4674.5817      27.369764     -4647.2119      134.12781      169.50979      59.525736    
     88900  -4675.6332      26.959338     -4648.6739      134.06632      169.45696      59.546348    
     89000  -4675.8242      25.585781     -4650.2384      134.00213      169.40571      59.566959    
     89100  -4675.7111      25.765565     -4649.9456      133.93928      169.3546       59.58757     
     89200  -4674.3759      26.438879     -4647.937       133.87959      169.30493      59.608182    
     89300  -4673.6977      28.029419     -4645.6683      133.82371      169.26183      59.628793    
     89400  -4672.0365      26.974021     -4645.0625      133.76862      169.21653      59.649405    
     89500  -4672.7025      26.777613     -4645.9249      133.71263      169.16948      59.670016    
     89600  -4672.5072      25.343397     -4647.1638      133.6629       169.12399      59.690627    
     89700  -4673.7157      26.395616     -4647.32        133.61418      169.07214      59.711239    
     89800  -4672.3679      26.532652     -4645.8352      133.56717      169.02119      59.73185     
     89900  -4670.2413      26.367274     -4643.874       133.52115      168.97564      59.752462    
     90000  -4670.6221      27.393984     -4643.2281      133.48092      168.93138      59.773073    
     90100  -4670.3526      27.407208     -4642.9453      133.43729      168.87933      59.793684    
     90200  -4669.6973      25.718693     -4643.9786      133.39896      168.82983      59.814296    
     90300  -4671.2509      26.006233     -4645.2446      133.35604      168.77624      59.834907    
     90400  -4670.4741      25.452773     -4645.0213      133.31723      168.72902      59.855519    
     90500  -4669.1917      25.908615     -4643.2831      133.27608      168.68657      59.87613     
     90600  -4668.0702      27.119758     -4640.9504      133.23665      168.64397      59.896741    
     90700  -4666.7268      26.921844     -4639.8049      133.20122      168.60868      59.917353    
     90800  -4668.8239      28.265918     -4640.558       133.16037      168.56755      59.937964    
     90900  -4667.7631      25.724917     -4642.0382      133.12314      168.53632      59.958576    
     91000  -4667.6796      24.909552     -4642.7701      133.08251      168.50195      59.979187    
     91100  -4667.4653      25.520513     -4641.9447      133.04412      168.47158      59.999798    
     91200  -4666.3805      26.601433     -4639.7791      133.0024       168.43498      60.02041     
     91300  -4664.4335      26.866427     -4637.5671      132.96658      168.40699      60.041021    
     91400  -4665.8166      28.551149     -4637.2654      132.92946      168.37705      60.061633    
     91500  -4665.6141      26.837251     -4638.7768      132.89724      168.35077      60.082244    
     91600  -4666.0933      25.857257     -4640.2361      132.85745      168.31437      60.102856    
     91700  -4665.1956      25.147925     -4640.0477      132.82196      168.27841      60.123467    
     91800  -4664.3443      26.08189      -4638.2624      132.78868      168.24347      60.144078    
     91900  -4662.6347      26.96128      -4635.6734      132.7583       168.21289      60.16469     
     92000  -4661.5908      27.236406     -4634.3544      132.72908      168.17763      60.185301    
     92100  -4662.1367      26.581209     -4635.5555      132.7056       168.1487       60.205913    
     92200  -4662.8107      25.077863     -4637.7329      132.67883      168.11211      60.226524    
     92300  -4662.0658      23.832761     -4638.233       132.65505      168.08044      60.247135    
     92400  -4660.0893      24.092369     -4635.997       132.62508      168.04835      60.267747    
     92500  -4659.3396      26.51389      -4632.8257      132.59954      168.02638      60.288358    
     92600  -4659.2141      28.04498      -4631.1691      132.56844      168.00039      60.30897     
     92700  -4659.1022      26.971654     -4632.1306      132.54136      167.97784      60.329581    
     92800  -4660.764       25.933046     -4634.831       132.50507      167.94989      60.350192    
     92900  -4661.3265      24.979144     -4636.3473      132.47163      167.92488      60.370804    
     93000  -4659.6428      24.876206     -4634.7666      132.44069      167.90544      60.391415    
     93100  -4658.5246      26.988574     -4631.536       132.41218      167.88184      60.412027    
     93200  -4655.7545      26.656684     -4629.0978      132.38494      167.85539      60.432638    
     93300  -4656.6939      27.337392     -4629.3566      132.35826      167.82621      60.453249    
     93400  -4658.3816      26.628684     -4631.7529      132.33331      167.79863      60.473861    
     93500  -4658.0959      24.78188      -4633.314       132.30809      167.76607      60.494472    
     93600  -4658.259       25.307375     -4632.9516      132.28583      167.73559      60.515084    
     93700  -4655.5828      25.420925     -4630.1619      132.26246      167.70456      60.535695    
     93800  -4655.3575      28.206798     -4627.1507      132.23553      167.6711       60.556306    
     93900  -4655.0383      28.678991     -4626.3593      132.21041      167.6453       60.576918    
     94000  -4655.1589      26.961861     -4628.1971      132.18535      167.61574      60.597529    
     94100  -4654.7937      24.6044       -4630.1893      132.16296      167.59219      60.618141    
     94200  -4655.4428      25.223228     -4630.2196      132.13815      167.56748      60.638752    
     94300  -4654.0591      25.903042     -4628.1561      132.11273      167.54487      60.659363    
     94400  -4652.3569      27.168579     -4625.1883      132.0913       167.52023      60.679975    
     94500  -4651.3314      27.201059     -4624.1303      132.06705      167.49595      60.700586    
     94600  -4651.9098      26.96711      -4624.9427      132.04823      167.47837      60.721198    
     94700  -4652.7417      26.095581     -4626.6461      132.02248      167.45664      60.741809    
     94800  -4653.3485      26.461432     -4626.8871      131.99529      167.43071      60.76242     
     94900  -4652.292       26.401849     -4625.8902      131.97836      167.40914      60.783032    
     95000  -4651.0612      27.11351      -4623.9477      131.95478      167.38132      60.803643    
     95100  -4649.9539      27.707408     -4622.2465      131.9306       167.35843      60.824255    
     95200  -4648.838       26.551611     -4622.2864      131.90495      167.33074      60.844866    
     95300  -4649.5228      25.944754     -4623.5781      131.88839      167.30332      60.865477    
     95400  -4650.0928      25.834536     -4624.2583      131.86987      167.2735       60.886089    
     95500  -4647.4351      24.23583      -4623.1993      131.85229      167.24667      60.9067      
     95600  -4647.9939      27.014739     -4620.9792      131.83009      167.21923      60.927312    
     95700  -4645.2371      26.038263     -4619.1988      131.81423      167.20099      60.947923    
     95800  -4645.7281      26.701687     -4619.0265      131.79081      167.17863      60.968535    
     95900  -4646.2332      26.010484     -4620.2227      131.76561      167.15573      60.989146    
     96000  -4646.4367      25.050064     -4621.3866      131.7399       167.1349       61.009757    
     96100  -4647.1793      26.16502      -4621.0143      131.71384      167.11556      61.030369    
     96200  -4646.2695      26.83888      -4619.4306      131.69181      167.09905      61.05098     
     96300  -4643.4919      26.400006     -4617.0919      131.66434      167.07313      61.071592    
     96400  -4644.4201      28.271768     -4616.1484      131.63712      167.04662      61.092203    
     96500  -4643.5908      26.795593     -4616.7952      131.61448      167.02888      61.112814    
     96600  -4644.2625      26.296549     -4617.966       131.59043      167.00144      61.133426    
     96700  -4643.7491      25.564647     -4618.1844      131.56616      166.97373      61.154037    
     96800  -4642.5531      25.199178     -4617.3539      131.54315      166.94706      61.174649    
     96900  -4643.077       27.514887     -4615.5621      131.52194      166.9207       61.19526     
     97000  -4640.6505      26.860087     -4613.7904      131.49965      166.89378      61.215871    
     97100  -4641.1214      27.545703     -4613.5757      131.48129      166.87007      61.236483    
     97200  -4643.0853      27.134079     -4615.9512      131.4575       166.83868      61.257094    
     97300  -4642.9439      24.613555     -4618.3303      131.43822      166.81661      61.277706    
     97400  -4643.422       25.043298     -4618.3787      131.41541      166.78868      61.298317    
     97500  -4641.498       25.91169      -4615.5863      131.39773      166.76171      61.318928    
     97600  -4638.4806      26.223152     -4612.2574      131.37702      166.72728      61.33954     
     97700  -4639.6033      28.393526     -4611.2098      131.35682      166.70013      61.360151    
     97800  -4640.0111      27.445026     -4612.5661      131.33765      166.67728      61.380763    
     97900  -4639.8388      25.419328     -4614.4195      131.31707      166.65268      61.401374    
     98000  -4640.3413      25.250823     -4615.0905      131.29611      166.63061      61.421985    
     98100  -4638.3652      25.356469     -4613.0087      131.26549      166.60295      61.442597    
     98200  -4636.8403      26.85137      -4609.9889      131.24119      166.58607      61.463208    
     98300  -4635.8128      27.231118     -4608.5817      131.21698      166.56908      61.48382     
     98400  -4636.1515      26.453147     -4609.6984      131.18807      166.54562      61.504431    
     98500  -4637.669       26.064948     -4611.6041      131.15844      166.51644      61.525042    
     98600  -4637.3944      25.092067     -4612.3024      131.13733      166.49823      61.545654    
     98700  -4636.1298      25.229448     -4610.9003      131.11211      166.47289      61.566265    
     98800  -4635.0829      27.269921     -4607.813       131.09088      166.44682      61.586877    
     98900  -4633.3338      27.494868     -4605.839       131.06657      166.41654      61.607488    
     99000  -4632.3501      26.176094     -4606.174       131.04375      166.38531      61.628099    
     99100  -4633.7821      26.112967     -4607.6691      131.02137      166.35847      61.648711    
     99200  -4634.3556      25.652436     -4608.7031      131.00023      166.32657      61.669322    
     99300  -4632.7407      24.613922     -4608.1268      130.98062      166.30073      61.689934    
     99400  -4631.643       25.970182     -4605.6728      130.95848      166.27485      61.710545    
     99500  -4630.2945      26.873522     -4603.421       130.93405      166.24627      61.731156    
     99600  -4630.2794      27.814342     -4602.4651      130.91273      166.21627      61.751768    
     99700  -4629.8103      26.454664     -4603.3557      130.89047      166.1888       61.772379    
     99800  -4631.0582      26.018264     -4605.0399      130.86282      166.16093      61.792991    
     99900  -4630.3465      24.949519     -4605.397       130.83416      166.13641      61.813602    
    100000  -4629.5498      25.91597      -4603.6339      130.80612      166.11034      61.834214    
Loop time of 2824.98 on 12 procs for 100000 steps with 680 atoms

Performance: 3.058 ns/day, 7.847 hours/ns, 35.399 timesteps/s, 24.071 katom-step/s
79.1% CPU use with 12 MPI tasks x 1 OpenMP threads

MPI task timing breakdown:
Section |  min time  |  avg time  |  max time  |%varavg| %total
---------------------------------------------------------------
Pair    | 0.10614    | 107.18     | 645.21     |2312.0 |  3.79
Neigh   | 0.0012802  | 0.11927    | 0.72791    |  76.2 |  0.00
Comm    | 0.94157    | 10.834     | 74.419     | 686.7 |  0.38
Output  | 7.7995     | 7.9833     | 8.1116     |   3.4 |  0.28
Modify  | 1881.6     | 2477.9     | 2597       | 525.3 | 87.72
Other   |            | 220.9      |            |       |  7.82

Nlocal:        56.6667 ave         342 max           0 min
Histogram: 10 0 0 0 0 0 0 0 0 2
Nghost:        95.1667 ave         573 max           0 min
Histogram: 10 0 0 0 0 0 0 0 0 2
Neighs:              0 ave           0 max           0 min
Histogram: 12 0 0 0 0 0 0 0 0 0

Total # of neighbors = 0
Ave neighs/atom = 0
Neighbor list builds = 203
Dangerous builds = 0
Total wall time: 0:47:06
