LAMMPS (2 Aug 2023 - Update 3)
OMP_NUM_THREADS environment is not set. Defaulting to 1 thread. (src/comm.cpp:98)
  using 1 OpenMP thread(s) per MPI task
Reading data file ...
  orthogonal box = (-100 -100 -2.3312515) to (100 100 46.166171)
  3 by 4 by 1 MPI processor grid
  reading atoms ...
  1320 atoms
  read_data CPU = 0.035 seconds
Replication is creating a 1x1x3 = 3 times larger system...
  orthogonal box = (-100 -100 -2.3312515) to (100 100 143.16102)
  2 by 3 by 2 MPI processor grid
  3960 atoms
  replicate CPU = 0.083 seconds
System init for write_data ...
WARNING: Communication cutoff is 0.0. No ghost atoms will be generated. Atoms may get lost. (src/comm_brick.cpp:210)
Reading airebo potential file CH.airebo with DATE: 2011-10-25
Reading airebo potential file CH.airebo with DATE: 2011-10-25
Reading airebo potential file CH.airebo with DATE: 2011-10-25
Neighbor list info ...
  update: every = 1 steps, delay = 0 steps, check = yes
  max neighbors/atom: 2000, page size: 100000
  master list distance cutoff = 13.2
  ghost atom cutoff = 13.2
  binsize = 6.6, bins = 31 31 23
  6 neighbor lists, perpetual/occasional/extra = 6 0 0
  (1) pair airebo, perpetual, skip from (5)
      attributes: full, newton on, ghost
      pair build: skip/ghost
      stencil: none
      bin: none
  (2) pair airebo, perpetual, skip from (5)
      attributes: full, newton on, ghost
      pair build: skip/ghost
      stencil: none
      bin: none
  (3) pair airebo, perpetual, skip from (5)
      attributes: full, newton on, ghost
      pair build: skip/ghost
      stencil: none
      bin: none
  (4) pair lj/cut, perpetual, skip from (6)
      attributes: half, newton on, cut 13
      pair build: skip
      stencil: none
      bin: none
  (5) neighbor class addition, perpetual
      attributes: full, newton on, ghost
      pair build: full/bin/ghost
      stencil: full/ghost/bin/3d
      bin: standard
  (6) neighbor class addition, perpetual
      attributes: half, newton on, cut 13
      pair build: half/bin/atomonly/newton
      stencil: half/bin/3d
      bin: standard
Setting up sd style minimization ...
  Unit style    : metal
  Current step  : 0
Per MPI rank memory allocation (min/avg/max) = 9.732 | 10.94 | 13.47 Mbytes
   Step          Temp          E_pair         E_mol          TotEng         Press     
         0   0             -24203.084      0             -24203.084      5481.8219    
        30   0             -28630.599      0             -28630.599      34.778352    
Loop time of 2.71589 on 12 procs for 30 steps with 3960 atoms

81.7% CPU use with 12 MPI tasks x 1 OpenMP threads

Minimization stats:
  Stopping criterion = energy tolerance
  Energy initial, next-to-last, final = 
     -24203.0835241417  -28628.7722152212  -28630.5994089822
  Force two-norm initial, final = 3407.0768 17.134235
  Force max component initial, final = 534.82797 1.9411106
  Final line search alpha, max atom move = 0.051917894 0.10077838
  Iterations, force evaluations = 30 54

MPI task timing breakdown:
Section |  min time  |  avg time  |  max time  |%varavg| %total
---------------------------------------------------------------
Pair    | 6.564e-05  | 0.32207    | 1.138      |  81.5 | 11.86
Neigh   | 0          | 0          | 0          |   0.0 |  0.00
Comm    | 2.633e-05  | 0.20454    | 0.75941    |  65.9 |  7.53
Output  | 0          | 0          | 0          |   0.0 |  0.00
Modify  | 0          | 0          | 0          |   0.0 |  0.00
Other   |            | 2.189      |            |       | 80.61

Nlocal:            330 ave        1032 max           0 min
Histogram: 8 0 0 0 0 0 0 0 0 4
Nghost:        564.333 ave        1738 max           0 min
Histogram: 8 0 0 0 0 0 0 0 0 4
Neighs:              0 ave           0 max           0 min
Histogram: 12 0 0 0 0 0 0 0 0 0

Total # of neighbors = 0
Ave neighs/atom = 0
Neighbor list builds = 0
Dangerous builds = 0
Setting up Verlet run ...
  Unit style    : metal
  Current step  : 30
  Time step     : 0.001
Per MPI rank memory allocation (min/avg/max) = 10.36 | 11.57 | 14.09 Mbytes
   Step          Temp          E_pair         E_mol          TotEng         Press          Volume    
        30   300           -28630.599      0             -28477.077      62.955081      5819690.8    
Loop time of 1.66451e-05 on 12 procs for 0 steps with 3960 atoms

98.1% CPU use with 12 MPI tasks x 1 OpenMP threads

MPI task timing breakdown:
Section |  min time  |  avg time  |  max time  |%varavg| %total
---------------------------------------------------------------
Pair    | 0          | 0          | 0          |   0.0 |  0.00
Neigh   | 0          | 0          | 0          |   0.0 |  0.00
Comm    | 0          | 0          | 0          |   0.0 |  0.00
Output  | 0          | 0          | 0          |   0.0 |  0.00
Modify  | 0          | 0          | 0          |   0.0 |  0.00
Other   |            | 1.665e-05  |            |       |100.00

Nlocal:            330 ave        1004 max           0 min
Histogram: 8 0 0 0 0 0 0 0 0 4
Nghost:            564 ave        1706 max           0 min
Histogram: 8 0 0 0 0 0 0 0 0 4
Neighs:              0 ave           0 max           0 min
Histogram: 12 0 0 0 0 0 0 0 0 0

Total # of neighbors = 0
Ave neighs/atom = 0
Neighbor list builds = 0
Dangerous builds = 0
WARNING: Dump 2 includes no atom IDs and is not sorted by ID. This may complicate post-processing tasks or visualization (src/dump.cpp:221)
Setting up Verlet run ...
  Unit style    : metal
  Current step  : 0
  Time step     : 0.001
Per MPI rank memory allocation (min/avg/max) = 11.86 | 13.07 | 15.59 Mbytes
   Step         PotEng         KinEng         TotEng           Lx             Ly             Lz      
         0  -28630.599      153.52227     -28477.077      200            200            145.49227    
       100  -28628.213      161.62856     -28466.584      200.02622      199.93676      145.56502    
       200  -28613.55       137.72643     -28475.823      200.02786      199.80815      145.63776    
       300  -28578.989      113.01314     -28465.976      200.13756      199.74262      145.71051    
       400  -28587.977      136.95047     -28451.026      200.15411      199.65872      145.78325    
       500  -28601.627      155.56168     -28446.066      200.2164       199.68481      145.856      
       600  -28590.717      138.0133      -28452.703      200.18342      199.72575      145.92875    
       700  -28609.643      163.85774     -28445.785      200.15017      199.80001      146.00149    
       800  -28609.314      156.87516     -28452.439      199.98281      199.8261       146.07424    
       900  -28606.801      147.86761     -28458.934      199.93164      199.89421      146.14698    
      1000  -28601.53       147.61691     -28453.913      199.89436      199.94466      146.21973    
      1100  -28588.174      145.28181     -28442.892      199.84383      199.95898      146.29248    
      1200  -28593.117      160.9384      -28432.179      199.86269      199.99332      146.36522    
      1300  -28603.775      166.04928     -28437.726      199.878        199.96135      146.43797    
      1400  -28604.128      155.59053     -28448.538      199.87812      199.89416      146.51071    
      1500  -28608.881      153.34067     -28455.54       199.90742      199.82867      146.58346    
      1600  -28603.817      145.97618     -28457.841      199.95992      199.80171      146.65621    
      1700  -28595.787      147.72685     -28448.06       199.92732      199.8054       146.72895    
      1800  -28602.372      164.22656     -28438.146      199.87518      199.84967      146.8017     
      1900  -28600.815      157.03467     -28443.781      199.83045      199.91352      146.87445    
      2000  -28594.597      146.50738     -28448.09       199.7483       199.93914      146.94719    
      2100  -28601.775      157.31167     -28444.463      199.72912      199.97021      147.01994    
      2200  -28591.252      150.14852     -28441.104      199.70736      199.96251      147.09268    
      2300  -28588.451      156.19812     -28432.253      199.70127      199.94335      147.16543    
      2400  -28591.181      160.81421     -28430.367      199.72252      199.9321       147.23818    
      2500  -28593.516      155.8681      -28437.648      199.73764      199.90316      147.31092    
      2600  -28593.657      152.18634     -28441.47       199.74627      199.86991      147.38367    
      2700  -28594.438      151.77255     -28442.666      199.75263      199.84621      147.45641    
      2800  -28587.744      148.96553     -28438.778      199.74072      199.83879      147.52916    
      2900  -28590.349      158.87972     -28431.469      199.70498      199.85326      147.60191    
      3000  -28591.433      159.914       -28431.519      199.66563      199.89244      147.67465    
      3100  -28586.181      150.05951     -28436.122      199.62036      199.92555      147.7474     
      3200  -28587.425      152.76227     -28434.663      199.58652      199.9424       147.82015    
      3300  -28583.43       153.03361     -28430.396      199.57238      199.94326      147.89289    
      3400  -28581.53       156.37383     -28425.156      199.56677      199.92412      147.96564    
      3500  -28579.241      157.74248     -28421.499      199.5746       199.90888      148.03838    
      3600  -28580.939      157.4859      -28423.453      199.56993      199.88652      148.11113    
      3700  -28576.691      150.50311     -28426.188      199.58231      199.86986      148.18388    
      3800  -28580.296      156.07995     -28424.216      199.5788       199.85107      148.25662    
      3900  -28576.949      155.57387     -28421.375      199.57911      199.84967      148.32937    
      4000  -28572.61       153.35979     -28419.25       199.54414      199.85278      148.40211    
      4100  -28571.684      153.3574      -28418.327      199.50375      199.8724       148.47486    
      4200  -28574.9        152.79089     -28422.109      199.47352      199.89985      148.54761    
      4300  -28571.374      148.4338      -28422.94       199.44298      199.91161      148.62035    
      4400  -28572.428      154.70103     -28417.727      199.43593      199.91605      148.6931     
      4500  -28567.721      155.11439     -28412.607      199.42201      199.89785      148.76585    
      4600  -28563.842      152.94829     -28410.893      199.4179       199.88583      148.83859    
      4700  -28563.644      155.4139      -28408.23       199.40856      199.87384      148.91134    
      4800  -28558.494      153.8779      -28404.616      199.39613      199.87188      148.98408    
      4900  -28558.275      154.58986     -28403.685      199.38446      199.87436      149.05683    
      5000  -28561.719      156.00157     -28405.717      199.36902      199.87443      149.12958    
      5100  -28560.558      153.67173     -28406.886      199.35186      199.87733      149.20232    
      5200  -28559.61       152.6859      -28406.925      199.32212      199.87005      149.27507    
      5300  -28552.75       150.26721     -28402.483      199.31285      199.87649      149.34781    
      5400  -28552.26       152.83078     -28399.43       199.29102      199.86964      149.42056    
      5500  -28547.77       149.32238     -28398.448      199.29311      199.86855      149.49331    
      5600  -28548.281      154.02009     -28394.261      199.28689      199.85796      149.56605    
      5700  -28544.513      154.26477     -28390.248      199.27319      199.83998      149.6388     
      5800  -28544.25       154.64087     -28389.609      199.26536      199.83276      149.71154    
      5900  -28544.629      152.6474      -28391.982      199.24058      199.82481      149.78429    
      6000  -28542.307      149.78655     -28392.521      199.23045      199.83415      149.85704    
      6100  -28539.629      152.31284     -28387.317      199.20565      199.84044      149.92978    
      6200  -28539.478      156.23381     -28383.244      199.18652      199.84828      150.00253    
      6300  -28535.196      154.05908     -28381.137      199.16641      199.8447       150.07528    
      6400  -28534.399      153.75305     -28380.646      199.14844      199.83066      150.14802    
      6500  -28530.302      150.3868      -28379.916      199.14284      199.8195       150.22077    
      6600  -28528.208      151.68134     -28376.527      199.12927      199.8078       150.29351    
      6700  -28524.722      152.65477     -28372.068      199.1241       199.81315      150.36626    
      6800  -28520.054      153.35214     -28366.702      199.09908      199.81615      150.43901    
      6900  -28519.14       155.92513     -28363.215      199.07108      199.82136      150.51175    
      7000  -28517.471      153.66932     -28363.801      199.0417       199.82351      150.5845     
      7100  -28517.948      151.41207     -28366.536      199.01852      199.82213      150.65724    
      7200  -28515.587      151.52215     -28364.065      199.00671      199.82208      150.72999    
      7300  -28512.127      153.88235     -28358.245      198.99084      199.81498      150.80274    
      7400  -28506.68       152.14615     -28354.534      198.98718      199.80639      150.87548    
      7500  -28505.47       151.76272     -28353.708      198.97563      199.78916      150.94823    
      7600  -28504.45       149.15231     -28355.298      198.96522      199.77338      151.02098    
      7700  -28505.053      147.34819     -28357.705      198.95154      199.76358      151.09372    
      7800  -28503.511      151.83151     -28351.679      198.92866      199.76302      151.16647    
      7900  -28497.095      151.61395     -28345.481      198.90629      199.77188      151.23921    
      8000  -28494.261      154.48932     -28339.771      198.87944      199.77807      151.31196    
      8100  -28490.528      156.09052     -28334.438      198.85416      199.77786      151.38471    
      8200  -28488.952      155.85247     -28333.099      198.84002      199.7698       151.45745    
      8300  -28486.923      151.84621     -28335.077      198.82699      199.75406      151.5302     
      8400  -28490.501      156.98943     -28333.512      198.82139      199.73567      151.60294    
      8500  -28482.543      150.80626     -28331.737      198.81981      199.71806      151.67569    
      8600  -28480.179      154.12936     -28326.05       198.80951      199.70181      151.74844    
      8700  -28475.442      156.55293     -28318.889      198.79998      199.6924       151.82118    
      8800  -28473.898      157.26844     -28316.63       198.77659      199.68667      151.89393    
      8900  -28470.262      153.7635      -28316.499      198.74965      199.68817      151.96667    
      9000  -28471.14       154.71202     -28316.428      198.72062      199.69499      152.03942    
      9100  -28466.683      149.61196     -28317.071      198.68903      199.69807      152.11217    
      9200  -28466.627      151.02467     -28315.602      198.67174      199.6999       152.18491    
      9300  -28459.784      153.28108     -28306.503      198.65252      199.68851      152.25766    
      9400  -28456.685      154.88857     -28301.797      198.64081      199.67537      152.33041    
      9500  -28452.333      154.29611     -28298.037      198.62974      199.65991      152.40315    
      9600  -28450.274      155.7953      -28294.479      198.61071      199.64432      152.4759     
      9700  -28444.941      152.3945      -28292.547      198.59768      199.63995      152.54864    
      9800  -28440.202      151.20289     -28288.999      198.57058      199.63331      152.62139    
      9900  -28438.948      154.37522     -28284.572      198.55141      199.63645      152.69414    
     10000  -28436.59       155.6832      -28280.907      198.52282      199.63625      152.76688    
     10100  -28433.636      153.5251      -28280.111      198.4929       199.63694      152.83963    
     10200  -28433.726      153.04769     -28280.678      198.46771      199.63209      152.91237    
     10300  -28429.754      151.1569      -28278.597      198.44529      199.62161      152.98512    
     10400  -28425.588      153.96564     -28271.622      198.43371      199.60935      153.05787    
     10500  -28418.574      152.29211     -28266.282      198.42458      199.59482      153.13061    
     10600  -28413.956      150.67309     -28263.282      198.41146      199.58138      153.20336    
     10700  -28414.4        155.66729     -28258.732      198.3901       199.5678       153.27611    
     10800  -28411.711      155.60654     -28256.105      198.36601      199.56086      153.34885    
     10900  -28407.984      151.54938     -28256.434      198.33502      199.55489      153.4216     
     11000  -28406.17       151.7144      -28254.455      198.31096      199.55801      153.49434    
     11100  -28397.257      150.84564     -28246.412      198.28148      199.55711      153.56709    
     11200  -28394.365      154.2127      -28240.153      198.25718      199.55381      153.63984    
     11300  -28392.485      153.60301     -28238.882      198.23462      199.54815      153.71258    
     11400  -28392.156      154.23903     -28237.917      198.21202      199.53158      153.78533    
     11500  -28388.687      154.60378     -28234.083      198.19876      199.51826      153.85807    
     11600  -28379.221      153.21135     -28226.01       198.1769       199.49831      153.93082    
     11700  -28375.402      156.47524     -28218.927      198.16195      199.48955      154.00357    
     11800  -28371.696      154.51747     -28217.178      198.13476      199.47923      154.07631    
     11900  -28371.676      154.67327     -28217.003      198.11099      199.47559      154.14906    
     12000  -28369.904      154.09018     -28215.814      198.08193      199.47041      154.22181    
     12100  -28364.426      151.23369     -28213.192      198.05124      199.46406      154.29455    
     12200  -28360.938      153.32525     -28207.613      198.02622      199.45995      154.3673     
     12300  -28353.133      152.64196     -28200.491      197.99412      199.4492       154.44004    
     12400  -28346.958      153.325       -28193.633      197.97133      199.44317      154.51279    
     12500  -28342.315      157.95842     -28184.357      197.94723      199.43423      154.58554    
     12600  -28340.966      157.82784     -28183.139      197.92085      199.42437      154.65828    
     12700  -28338.717      154.82934     -28183.888      197.89703      199.41528      154.73103    
     12800  -28336.596      153.54409     -28183.052      197.86954      199.40238      154.80377    
     12900  -28333.232      152.39538     -28180.836      197.8475       199.3867       154.87652    
     13000  -28336.802      158.99023     -28177.812      197.82596      199.36684      154.94927    
     13100  -28326.7        149.55551     -28177.145      197.8092       199.35023      155.02201    
     13200  -28323.12       149.48308     -28173.637      197.78903      199.33548      155.09476    
     13300  -28317.147      153.06938     -28164.078      197.76257      199.32156      155.1675     
     13400  -28311.398      153.2838      -28158.115      197.73512      199.31138      155.24025    
     13500  -28304.471      151.96684     -28152.504      197.70519      199.3022       155.313      
     13600  -28303.126      155.9405      -28147.186      197.67437      199.29196      155.38574    
     13700  -28302.95       157.56799     -28145.382      197.6439       199.28257      155.45849    
     13800  -28299.561      153.66677     -28145.895      197.61443      199.27136      155.53124    
     13900  -28293.94       151.76716     -28142.173      197.58939      199.25765      155.60398    
     14000  -28286.476      151.84946     -28134.627      197.5662       199.23998      155.67673    
     14100  -28282.067      154.47699     -28127.59       197.54492      199.21724      155.74947    
     14200  -28281.818      157.51472     -28124.303      197.52268      199.1974       155.82222    
     14300  -28274.354      152.65158     -28121.702      197.49722      199.17762      155.89497    
     14400  -28270.587      151.7288      -28118.858      197.47293      199.16329      155.96771    
     14500  -28267.605      151.34318     -28116.262      197.44127      199.14948      156.04046    
     14600  -28261.402      149.47348     -28111.929      197.40584      199.13829      156.1132     
     14700  -28256.671      153.60974     -28103.061      197.37172      199.12927      156.18595    
     14800  -28251.83       154.75829     -28097.071      197.33462      199.1179       156.2587     
     14900  -28248.088      153.06078     -28095.027      197.30356      199.10587      156.33144    
     15000  -28246.213      152.05373     -28094.159      197.27419      199.08848      156.40419    
     15100  -28240.275      150.33761     -28089.937      197.24981      199.06679      156.47694    
     15200  -28238.389      155.15218     -28083.236      197.22717      199.03958      156.54968    
     15300  -28230.58       152.85735     -28077.723      197.20406      199.01127      156.62243    
     15400  -28224.023      152.37698     -28071.646      197.18087      198.98917      156.69517    
     15500  -28222.509      157.40701     -28065.102      197.14907      198.96713      156.76792    
     15600  -28217.859      156.76953     -28061.089      197.11809      198.95234      156.84067    
     15700  -28213.837      152.16618     -28061.67       197.08058      198.93753      156.91341    
     15800  -28207.986      150.08472     -28057.901      197.04571      198.92499      156.98616    
     15900  -28205.625      155.63886     -28049.986      197.0066       198.90887      157.0589     
     16000  -28199.436      156.17676     -28043.259      196.96939      198.89071      157.13165    
     16100  -28191.635      152.33185     -28039.303      196.93731      198.8738       157.2044     
     16200  -28187.241      152.25865     -28034.983      196.89999      198.8506       157.27714    
     16300  -28185.333      155.01503     -28030.318      196.87078      198.82987      157.34989    
     16400  -28180.521      152.72413     -28027.796      196.83662      198.8051       157.42264    
     16500  -28179.556      153.29316     -28026.263      196.80383      198.78134      157.49538    
     16600  -28170.995      151.15599     -28019.839      196.77089      198.75995      157.56813    
     16700  -28165.336      154.50464     -28010.831      196.73244      198.73549      157.64087    
     16800  -28158.986      154.43953     -28004.547      196.69933      198.71617      157.71362    
     16900  -28154.214      154.76768     -27999.447      196.65851      198.69394      157.78637    
     17000  -28149.723      152.28135     -27997.442      196.61733      198.67306      157.85911    
     17100  -28145.112      149.15651     -27995.955      196.5742       198.65158      157.93186    
     17200  -28138.889      150.28145     -27988.608      196.53394      198.63405      158.0046     
     17300  -28130.801      151.54549     -27979.256      196.49154      198.61444      158.07735    
     17400  -28125.679      152.58941     -27973.089      196.44995      198.59195      158.1501     
     17500  -28123.251      154.21071     -27969.04       196.41361      198.56782      158.22284    
     17600  -28118.96       151.41929     -27967.541      196.3724       198.53431      158.29559    
     17700  -28118.455      153.57916     -27964.876      196.33769      198.50047      158.36833    
     17800  -28111.593      152.40802     -27959.185      196.30286      198.46601      158.44108    
     17900  -28103.561      155.92506     -27947.636      196.26422      198.43368      158.51383    
     18000  -28095.579      154.7551      -27940.824      196.22709      198.40962      158.58657    
     18100  -28090.513      154.22276     -27936.291      196.17544      198.38565      158.65932    
     18200  -28087.158      154.53885     -27932.619      196.1241       198.36653      158.73207    
     18300  -28085.695      154.52306     -27931.172      196.06777      198.34694      158.80481    
     18400  -28078.046      149.29167     -27928.755      196.01071      198.3253       158.87756    
     18500  -28073.733      151.8892      -27921.844      195.95897      198.30213      158.9503     
     18600  -28067.923      153.63895     -27914.284      195.90821      198.27249      159.02305    
     18700  -28061.878      154.66719     -27907.211      195.86511      198.2425       159.0958     
     18800  -28050.71       150.89426     -27899.815      195.81864      198.20734      159.16854    
     18900  -28049.123      155.5588      -27893.564      195.77537      198.17272      159.24129    
     19000  -28045.149      153.2946      -27891.855      195.72728      198.13491      159.31403    
     19100  -28041.366      151.30616     -27890.06       195.67745      198.09812      159.38678    
     19200  -28033.265      150.58854     -27882.676      195.62864      198.06499      159.45953    
     19300  -28027.888      153.51168     -27874.376      195.57216      198.03205      159.53227    
     19400  -28022.652      153.13294     -27869.519      195.51585      198.00164      159.60502    
     19500  -28016.04       151.37273     -27864.667      195.4566       197.97175      159.67777    
     19600  -28012.861      154.23148     -27858.629      195.39768      197.94247      159.75051    
     19700  -28004.151      153.68991     -27850.461      195.33727      197.91212      159.82326    
     19800  -27998.38       156.16385     -27842.216      195.27435      197.87941      159.896      
     19900  -27994.373      154.81332     -27839.56       195.21528      197.84725      159.96875    
     20000  -27990.265      152.58661     -27837.679      195.1497       197.81031      160.0415     
     20100  -27980.995      148.60037     -27832.394      195.09095      197.77404      160.11424    
     20200  -27977.944      153.22752     -27824.717      195.0308       197.73457      160.18699    
     20300  -27969.351      153.97526     -27815.376      194.97059      197.6931       160.25973    
     20400  -27964.22       157.13053     -27807.09       194.91816      197.65209      160.33248    
     20500  -27962.551      157.57981     -27804.971      194.85612      197.60496      160.40523    
     20600  -27957.003      153.47825     -27803.525      194.7963       197.56166      160.47797    
     20700  -27948.898      150.46367     -27798.434      194.72913      197.52125      160.55072    
     20800  -27946.819      156.71205     -27790.107      194.65527      197.48048      160.62346    
     20900  -27937.011      155.93681     -27781.074      194.58875      197.44961      160.69621    
     21000  -27932.557      156.35844     -27776.198      194.50705      197.41054      160.76896    
     21100  -27925.935      149.17969     -27776.756      194.4405       197.37715      160.8417     
     21200  -27923.405      153.34616     -27770.059      194.36394      197.33439      160.91445    
     21300  -27912.183      151.7407      -27760.442      194.29384      197.29036      160.9872     
     21400  -27907.213      154.82054     -27752.393      194.22762      197.24609      161.05994    
     21500  -27900.53       154.351       -27746.179      194.15067      197.19282      161.13269    
     21600  -27898.116      153.7551      -27744.361      194.08856      197.14953      161.20543    
     21700  -27892.292      150.73501     -27741.557      194.01106      197.09754      161.27818    
     21800  -27885.157      150.66931     -27734.488      193.94172      197.0531       161.35093    
     21900  -27878.876      152.68254     -27726.193      193.87052      197.00978      161.42367    
     22000  -27872.668      153.20745     -27719.461      193.7872       196.95995      161.49642    
     22100  -27866.336      153.48108     -27712.855      193.7147       196.9193       161.56916    
     22200  -27859.133      153.2876      -27705.845      193.6283       196.8705       161.64191    
     22300  -27850.648      152.95722     -27697.691      193.55218      196.82932      161.71466    
     22400  -27841.825      153.51584     -27688.309      193.4702       196.7849       161.7874     
     22500  -27839.932      156.7294      -27683.203      193.3843       196.73767      161.86015    
     22600  -27833.868      151.39456     -27682.473      193.31168      196.69609      161.9329     
     22700  -27833.031      155.66786     -27677.363      193.22595      196.64116      162.00564    
     22800  -27823.338      151.99769     -27671.341      193.15858      196.59442      162.07839    
     22900  -27817.541      153.93968     -27663.601      193.08164      196.53779      162.15113    
     23000  -27811.494      157.4801      -27654.014      193.00631      196.48375      162.22388    
     23100  -27802.513      155.67663     -27646.837      192.93336      196.43334      162.29663    
     23200  -27799.89       154.10368     -27645.787      192.84642      196.38207      162.36937    
     23300  -27796.855      154.81936     -27642.035      192.76888      196.33992      162.44212    
     23400  -27788.785      155.19799     -27633.587      192.68326      196.29517      162.51486    
     23500  -27778.448      153.92701     -27624.521      192.60084      196.25032      162.58761    
     23600  -27770.152      152.51682     -27617.635      192.5204       196.20507      162.66036    
     23700  -27766.744      150.99509     -27615.749      192.43751      196.1544       162.7331     
     23800  -27761.427      148.67035     -27612.757      192.3626       196.10672      162.80585    
     23900  -27755.714      152.32454     -27603.39       192.28661      196.05678      162.8786     
     24000  -27748.878      154.63666     -27594.241      192.21384      196.00744      162.95134    
     24100  -27740.038      153.21283     -27586.825      192.14319      195.95891      163.02409    
     24200  -27734.734      155.53212     -27579.202      192.06346      195.90515      163.09683    
     24300  -27728.158      155.26836     -27572.89       191.99543      195.8597       163.16958    
     24400  -27723.202      153.63513     -27569.567      191.91379      195.80842      163.24233    
     24500  -27719.68       153.27557     -27566.405      191.84104      195.76329      163.31507    
     24600  -27709.587      150.87272     -27558.714      191.76904      195.72113      163.38782    
     24700  -27700.672      152.78986     -27547.882      191.69117      195.67726      163.46056    
     24800  -27694.42       154.46863     -27539.952      191.62173      195.64168      163.53331    
     24900  -27686.586      153.6605      -27532.925      191.54223      195.5968       163.60606    
     25000  -27682.311      154.17083     -27528.14       191.47556      195.55628      163.6788     
     25100  -27676.744      150.15573     -27526.588      191.40663      195.51002      163.75155    
     25200  -27672.045      150.82954     -27521.216      191.34381      195.46331      163.82429    
     25300  -27661.049      148.64682     -27512.402      191.28379      195.41676      163.89704    
     25400  -27656.745      153.26268     -27503.482      191.21945      195.36921      163.96979    
     25500  -27649.821      154.87315     -27494.948      191.16017      195.32757      164.04253    
     25600  -27641.646      153.38015     -27488.265      191.0952       195.28727      164.11528    
     25700  -27637.833      153.90654     -27483.926      191.02988      195.24987      164.18803    
     25800  -27634.516      152.68505     -27481.831      190.9698       195.21855      164.26077    
     25900  -27623.385      149.26658     -27474.119      190.90273      195.18289      164.33352    
     26000  -27616.559      153.01248     -27463.546      190.84574      195.15159      164.40626    
     26100  -27607.666      152.25855     -27455.407      190.78497      195.11454      164.47901    
     26200  -27602.546      153.98597     -27448.56       190.72694      195.07784      164.55176    
     26300  -27595.404      152.67283     -27442.731      190.67573      195.04489      164.6245     
     26400  -27589.524      151.33501     -27438.188      190.61784      195.00618      164.69725    
     26500  -27584.605      151.2195      -27433.385      190.57279      194.97513      164.76999    
     26600  -27575.577      150.96338     -27424.613      190.52186      194.93869      164.84274    
     26700  -27568.685      155.40892     -27413.276      190.47463      194.9046       164.91549    
     26800  -27560.914      155.17748     -27405.737      190.43235      194.87241      164.98823    
     26900  -27555.931      154.41466     -27401.517      190.38177      194.83504      165.06098    
     27000  -27547.915      150.01817     -27397.896      190.34029      194.80476      165.13373    
     27100  -27542.875      151.8504      -27391.025      190.29163      194.77214      165.20647    
     27200  -27530.681      153.30627     -27377.374      190.24936      194.74509      165.27922    
     27300  -27526.281      157.22554     -27369.056      190.20696      194.71903      165.35196    
     27400  -27516.867      151.62569     -27365.242      190.15934      194.69025      165.42471    
     27500  -27515.513      153.56486     -27361.948      190.11965      194.66659      165.49746    
     27600  -27508.333      152.65811     -27355.675      190.07542      194.64059      165.5702     
     27700  -27501.157      155.20085     -27345.956      190.03345      194.61593      165.64295    
     27800  -27491.838      157.13791     -27334.7        189.9977       194.59525      165.71569    
     27900  -27483.195      155.06697     -27328.128      189.95516      194.5684       165.78844    
     28000  -27476.679      154.18078     -27322.499      189.92406      194.54637      165.86119    
     28100  -27470.834      153.67083     -27317.164      189.88872      194.52127      165.93393    
     28200  -27463.693      153.28186     -27310.411      189.85112      194.49426      166.00668    
     28300  -27455.477      153.45678     -27302.021      189.82257      194.47232      166.07943    
     28400  -27448.194      154.90847     -27293.286      189.78575      194.44338      166.15217    
     28500  -27439.088      151.01755     -27288.071      189.7598       194.42249      166.22492    
     28600  -27436.675      152.41887     -27284.256      189.72727      194.3984       166.29766    
     28700  -27429.178      150.18286     -27278.995      189.69459      194.37624      166.37041    
     28800  -27423.428      156.14183     -27267.286      189.66508      194.35808      166.44316    
     28900  -27411.862      154.36481     -27257.497      189.63124      194.33725      166.5159     
     29000  -27405.728      154.3781      -27251.35       189.60199      194.32248      166.58865    
     29100  -27400.111      153.28453     -27246.827      189.56828      194.30577      166.66139    
     29200  -27395.339      152.49554     -27242.844      189.53749      194.29081      166.73414    
     29300  -27384.635      150.57915     -27234.056      189.51061      194.27472      166.80689    
     29400  -27376.569      155.42474     -27221.144      189.48066      194.25444      166.87963    
     29500  -27368.366      153.92812     -27214.438      189.45605      194.23539      166.95238    
     29600  -27364.922      155.7467      -27209.176      189.43051      194.21379      167.02512    
     29700  -27354.328      150.14463     -27204.183      189.40651      194.1934       167.09787    
     29800  -27348.857      150.78475     -27198.072      189.38279      194.17425      167.17062    
     29900  -27339.104      151.4933      -27187.611      189.35788      194.15697      167.24336    
     30000  -27330.769      154.2118      -27176.557      189.33487      194.14315      167.31611    
     30100  -27325.587      156.12298     -27169.464      189.30836      194.12946      167.38886    
     30200  -27319.541      153.46852     -27166.072      189.28229      194.11681      167.4616     
     30300  -27312.153      150.90033     -27161.252      189.25703      194.10325      167.53435    
     30400  -27304.177      151.80276     -27152.375      189.23132      194.08715      167.60709    
     30500  -27297.737      155.44106     -27142.296      189.20956      194.07083      167.67984    
     30600  -27287.264      153.68045     -27133.583      189.18725      194.05562      167.75259    
     30700  -27279.992      153.38281     -27126.609      189.16124      194.03888      167.82533    
     30800  -27272.755      151.67602     -27121.079      189.14079      194.02678      167.89808    
     30900  -27271.671      151.37554     -27120.296      189.11629      194.01086      167.97082    
     31000  -27262.93       150.53069     -27112.399      189.09459      193.99683      168.04357    
     31100  -27253.502      152.75639     -27100.745      189.07484      193.98256      168.11632    
     31200  -27244.334      153.97743     -27090.357      189.05419      193.96473      168.18906    
     31300  -27235.243      153.85725     -27081.386      189.04001      193.9515       168.26181    
     31400  -27228.853      153.91515     -27074.938      189.01913      193.93374      168.33456    
     31500  -27223.922      152.02156     -27071.901      188.9987       193.91886      168.4073     
     31600  -27218.431      152.31765     -27066.113      188.9776       193.90333      168.48005    
     31700  -27207.44       152.68503     -27054.755      188.95448      193.88684      168.55279    
     31800  -27198.04       153.60754     -27044.433      188.93644      193.87531      168.62554    
     31900  -27192.508      155.48608     -27037.022      188.91407      193.8607       168.69829    
     32000  -27183.105      152.57663     -27030.529      188.89545      193.84937      168.77103    
     32100  -27176.29       152.01494     -27024.275      188.87531      193.8371       168.84378    
     32200  -27168.326      151.56544     -27016.76       188.85351      193.82436      168.91652    
     32300  -27164.72       158.72036     -27006          188.83663      193.8125       168.98927    
     32400  -27152.265      155.88168     -26996.383      188.81654      193.79631      169.06202    
     32500  -27144.347      152.66452     -26991.682      188.79978      193.78007      169.13476    
     32600  -27137.19       148.66389     -26988.526      188.78648      193.76504      169.20751    
     32700  -27131.463      151.1935      -26980.269      188.76751      193.74761      169.28025    
     32800  -27122.757      152.73687     -26970.02       188.75175      193.73181      169.353      
     32900  -27113.721      153.13774     -26960.583      188.73404      193.71755      169.42575    
     33000  -27106.267      153.08424     -26953.182      188.71266      193.70243      169.49849    
     33100  -27099.738      153.63556     -26946.103      188.69422      193.6927       169.57124    
     33200  -27094.06       152.82777     -26941.232      188.67258      193.68066      169.64399    
     33300  -27086.745      151.87843     -26934.867      188.65402      193.66948      169.71673    
     33400  -27078.464      154.48629     -26923.977      188.63512      193.65784      169.78948    
     33500  -27067.215      153.94609     -26913.269      188.61301      193.64386      169.86222    
     33600  -27058.496      152.97807     -26905.518      188.59667      193.63266      169.93497    
     33700  -27052.743      152.62293     -26900.12       188.57691      193.61616      170.00772    
     33800  -27046.548      148.95075     -26897.598      188.5614       193.60258      170.08046    
     33900  -27039.214      149.20314     -26890.011      188.54376      193.58761      170.15321    
     34000  -27030.066      151.42222     -26878.644      188.5252       193.57214      170.22595    
     34100  -27023.506      154.2968      -26869.209      188.50945      193.55911      170.2987     
     34200  -27010.01       149.92065     -26860.09       188.49118      193.54376      170.37145    
     34300  -27005.025      154.62226     -26850.403      188.47443      193.52906      170.44419    
     34400  -26993.472      153.33501     -26840.137      188.4607       193.51495      170.51694    
     34500  -26987.934      156.53397     -26831.4        188.442        193.49936      170.58969    
     34600  -26982.187      154.33266     -26827.854      188.42369      193.48602      170.66243    
     34700  -26978.708      155.19886     -26823.509      188.40662      193.4758       170.73518    
     34800  -26967.349      151.67351     -26815.676      188.38408      193.46327      170.80792    
     34900  -26959.52       154.67338     -26804.846      188.36571      193.45244      170.88067    
     35000  -26952.79       159.22269     -26793.567      188.34581      193.43934      170.95342    
     35100  -26942.984      155.97375     -26787.01       188.32626      193.42438      171.02616    
     35200  -26935.193      153.79522     -26781.398      188.30842      193.41064      171.09891    
     35300  -26926.263      152.86262     -26773.4        188.28821      193.39574      171.17165    
     35400  -26918.501      153.89629     -26764.605      188.26884      193.38293      171.2444     
     35500  -26911.72       155.35212     -26756.368      188.24856      193.37026      171.31715    
     35600  -26907.577      156.88027     -26750.697      188.22929      193.35675      171.38989    
     35700  -26896.515      150.10206     -26746.413      188.21302      193.34442      171.46264    
     35800  -26891.302      152.59207     -26738.71       188.19497      193.32923      171.53539    
     35900  -26876.063      151.23909     -26724.823      188.17901      193.31504      171.60813    
     36000  -26869.454      154.02141     -26715.432      188.16194      193.29839      171.68088    
     36100  -26861.974      153.70176     -26708.272      188.14395      193.28248      171.75362    
     36200  -26854.781      152.94821     -26701.833      188.12381      193.26704      171.82637    
     36300  -26846.405      150.56123     -26695.844      188.10361      193.25209      171.89912    
     36400  -26843.039      153.90109     -26689.137      188.08219      193.23774      171.97186    
     36500  -26833.083      154.3155      -26678.768      188.06192      193.22478      172.04461    
     36600  -26823.117      156.21782     -26666.899      188.04069      193.21258      172.11735    
     36700  -26810.997      152.17332     -26658.823      188.01994      193.19904      172.1901     
     36800  -26806.873      153.53594     -26653.337      188.00188      193.18659      172.26285    
     36900  -26800.693      150.71646     -26649.977      187.98082      193.17191      172.33559    
     37000  -26793.297      149.91806     -26643.379      187.96113      193.15749      172.40834    
     37100  -26782.971      154.20015     -26628.771      187.94138      193.14245      172.48108    
     37200  -26772.21       152.8657      -26619.344      187.92213      193.12708      172.55383    
     37300  -26765.148      152.65069     -26612.498      187.90314      193.11227      172.62658    
     37400  -26758.629      152.29855     -26606.33       187.88317      193.09422      172.69932    
     37500  -26748.698      151.18863     -26597.51       187.86582      193.07641      172.77207    
     37600  -26742.587      157.84473     -26584.742      187.84681      193.05711      172.84482    
     37700  -26730.75       154.53802     -26576.212      187.82874      193.04019      172.91756    
     37800  -26725.538      154.79198     -26570.746      187.808        193.02321      172.99031    
     37900  -26716.433      151.92563     -26564.507      187.78732      193.00817      173.06305    
     38000  -26711.598      155.4894      -26556.108      187.76597      192.99404      173.1358     
     38100  -26701.351      153.92114     -26547.43       187.74196      192.97772      173.20855    
     38200  -26691.51       152.48321     -26539.027      187.72118      192.96339      173.28129    
     38300  -26684.755      153.54384     -26531.211      187.70018      192.94827      173.35404    
     38400  -26674.856      152.25101     -26522.605      187.67822      192.93363      173.42678    
     38500  -26666.676      154.13372     -26512.542      187.65742      192.92014      173.49953    
     38600  -26659.003      156.45479     -26502.548      187.63368      192.90516      173.57228    
     38700  -26651.081      155.85836     -26495.222      187.61         192.88998      173.64502    
     38800  -26642.067      149.82714     -26492.24       187.58929      192.87416      173.71777    
     38900  -26637.915      152.75002     -26485.165      187.56543      192.85446      173.79052    
     39000  -26626.079      151.14871     -26474.93       187.54597      192.83565      173.86326    
     39100  -26617.268      153.83671     -26463.431      187.52562      192.81691      173.93601    
     39200  -26609.353      154.49657     -26454.856      187.50208      192.79558      174.00875    
     39300  -26601.649      154.1878      -26447.461      187.48303      192.77876      174.0815     
     39400  -26591.418      151.55383     -26439.864      187.45803      192.75945      174.15425    
     39500  -26586.137      152.88422     -26433.252      187.43562      192.74328      174.22699    
     39600  -26578.513      150.1942      -26428.319      187.41322      192.72798      174.29974    
     39700  -26571.081      151.76967     -26419.311      187.38644      192.71097      174.37248    
     39800  -26559.658      153.24877     -26406.409      187.36582      192.69821      174.44523    
     39900  -26550.382      153.63376     -26396.749      187.3379       192.67894      174.51798    
     40000  -26541.794      152.57422     -26389.22       187.31569      192.66306      174.59072    
     40100  -26536.233      153.40967     -26382.823      187.29246      192.64637      174.66347    
     40200  -26529.373      150.16128     -26379.212      187.26434      192.62523      174.73622    
     40300  -26520.261      148.9149      -26371.346      187.24245      192.60728      174.80896    
     40400  -26511.857      153.46473     -26358.393      187.21642      192.58502      174.88171    
     40500  -26501.882      153.17501     -26348.707      187.19348      192.56476      174.95445    
     40600  -26491.423      152.04606     -26339.377      187.17244      192.54426      175.0272     
     40700  -26484.773      154.88974     -26329.883      187.14879      192.52202      175.09995    
     40800  -26473.598      152.69318     -26320.905      187.12926      192.50314      175.17269    
     40900  -26465.107      151.09313     -26314.014      187.10356      192.48183      175.24544    
     41000  -26463.881      154.45003     -26309.431      187.07802      192.46244      175.31818    
     41100  -26454.367      151.9039      -26302.463      187.05244      192.44302      175.39093    
     41200  -26442.99       152.22802     -26290.762      187.02492      192.42448      175.46368    
     41300  -26432.87       154.48518     -26278.384      186.99719      192.40634      175.53642    
     41400  -26425.762      154.83458     -26270.927      186.96871      192.38707      175.60917    
     41500  -26418.409      153.43401     -26264.975      186.9409       192.36757      175.68191    
     41600  -26408.252      149.78545     -26258.466      186.91387      192.34825      175.75466    
     41700  -26403.551      152.55203     -26250.999      186.88458      192.32855      175.82741    
     41800  -26393.057      152.67866     -26240.378      186.85531      192.30726      175.90015    
     41900  -26382.603      154.73591     -26227.867      186.8296       192.28637      175.9729     
     42000  -26377.464      157.88163     -26219.582      186.80338      192.26391      176.04565    
     42100  -26369.696      154.80486     -26214.891      186.77569      192.23921      176.11839    
     42200  -26360.2        151.42451     -26208.776      186.75305      192.21568      176.19114    
     42300  -26353.46       153.69849     -26199.761      186.72977      192.1913       176.26388    
     42400  -26340.491      150.86617     -26189.625      186.70312      192.16742      176.33663    
     42500  -26336.174      156.42147     -26179.752      186.67644      192.14648      176.40938    
     42600  -26322.994      152.26185     -26170.732      186.64466      192.12454      176.48212    
     42700  -26318.334      154.92899     -26163.406      186.61314      192.10238      176.55487    
     42800  -26311.149      150.71639     -26160.433      186.58138      192.07997      176.62761    
     42900  -26303.674      151.78012     -26151.894      186.54866      192.05775      176.70036    
     43000  -26292.115      152.92371     -26139.192      186.51892      192.03752      176.77311    
     43100  -26281.901      153.17556     -26128.726      186.48651      192.01563      176.84585    
     43200  -26274.284      154.55027     -26119.733      186.4559       191.99523      176.9186     
     43300  -26265.819      153.17999     -26112.639      186.42321      191.97286      176.99135    
     43400  -26260.848      152.47825     -26108.369      186.39067      191.94849      177.06409    
     43500  -26251.261      150.52554     -26100.735      186.36303      191.92549      177.13684    
     43600  -26240.203      152.82219     -26087.38       186.3299       191.89723      177.20958    
     43700  -26232.219      154.98795     -26077.231      186.3019       191.87004      177.28233    
     43800  -26222.554      152.89907     -26069.655      186.27631      191.84251      177.35508    
     43900  -26213.852      151.08082     -26062.771      186.24516      191.81173      177.42782    
     44000  -26210.328      154.51191     -26055.816      186.2178       191.78733      177.50057    
     44100  -26198.958      152.46724     -26046.491      186.18381      191.76125      177.57331    
     44200  -26188.46       154.49753     -26033.963      186.14898      191.73762      177.64606    
     44300  -26179          155.41696     -26023.583      186.11407      191.71723      177.71881    
     44400  -26170.694      153.91684     -26016.777      186.07332      191.69398      177.79155    
     44500  -26168.227      154.97385     -26013.253      186.0395       191.67327      177.8643     
     44600  -26158.035      153.07621     -26004.959      186.0064       191.64972      177.93704    
     44700  -26146.155      152.04601     -25994.109      185.97069      191.62166      178.00979    
     44800  -26137.166      154.34432     -25982.822      185.94252      191.59603      178.08254    
     44900  -26130.87       157.09267     -25973.778      185.90946      191.56539      178.15528    
     45000  -26120.49       151.86618     -25968.624      185.87433      191.53404      178.22803    
     45100  -26116.485      151.74223     -25964.743      185.84064      191.50602      178.30078    
     45200  -26107.976      154.19518     -25953.781      185.802        191.4768       178.37352    
     45300  -26098.522      156.79788     -25941.724      185.76646      191.45071      178.44627    
     45400  -26086.002      154.257       -25931.745      185.72915      191.42451      178.51901    
     45500  -26076.23       153.09345     -25923.136      185.69013      191.39791      178.59176    
     45600  -26069.945      154.06191     -25915.883      185.65432      191.37428      178.66451    
     45700  -26058.93       150.07073     -25908.859      185.61527      191.34858      178.73725    
     45800  -26049.925      150.96442     -25898.961      185.57702      191.32341      178.81       
     45900  -26045.35       158.27801     -25887.072      185.53969      191.29796      178.88274    
     46000  -26031.634      154.21684     -25877.417      185.4983       191.26719      178.95549    
     46100  -26028.526      155.60621     -25872.92       185.46459      191.23852      179.02824    
     46200  -26021.723      153.88368     -25867.839      185.43118      191.20742      179.10098    
     46300  -26011.648      153.49157     -25858.156      185.39532      191.17304      179.17373    
     46400  -26000.523      154.11163     -25846.411      185.36265      191.14139      179.24648    
     46500  -25988.831      152.66617     -25836.165      185.32412      191.10748      179.31922    
     46600  -25982.458      154.74494     -25827.713      185.28322      191.07535      179.39197    
     46700  -25972.818      152.83225     -25819.985      185.24456      191.04697      179.46471    
     46800  -25967.042      154.93894     -25812.104      185.19957      191.0156       179.53746    
     46900  -25955.886      151.85969     -25804.026      185.15996      190.99016      179.61021    
     47000  -25947.294      151.08498     -25796.209      185.11791      190.96473      179.68295    
     47100  -25942.088      153.43291     -25788.655      185.07191      190.93662      179.7557     
     47200  -25930.591      151.28661     -25779.305      185.03256      190.9116       179.82844    
     47300  -25922.938      155.73181     -25767.206      184.9881       190.88121      179.90119    
     47400  -25911.874      155.53514     -25756.338      184.94656      190.8512       179.97394    
     47500  -25904.396      153.65844     -25750.738      184.90832      190.82162      180.04668    
     47600  -25900.04       154.1706      -25745.87       184.86551      190.78486      180.11943    
     47700  -25888.794      152.18738     -25736.607      184.83244      190.7524       180.19218    
     47800  -25880.617      154.04187     -25726.575      184.79311      190.71372      180.26492    
     47900  -25870.201      154.40471     -25715.796      184.75382      190.67601      180.33767    
     48000  -25860.724      156.86523     -25703.859      184.71865      190.64375      180.41041    
     48100  -25850.383      157.01996     -25693.363      184.67217      190.60641      180.48316    
     48200  -25845.103      155.3805      -25689.722      184.6315       190.57752      180.55591    
     48300  -25837.087      153.22658     -25683.86       184.58635      190.54688      180.62865    
     48400  -25826.39       150.66773     -25675.722      184.53801      190.5157       180.7014     
     48500  -25819.999      154.73111     -25665.268      184.49572      190.48887      180.77414    
     48600  -25809.055      155.95806     -25653.097      184.44772      190.45633      180.84689    
     48700  -25799.687      156.20399     -25643.483      184.405        190.42393      180.91964    
     48800  -25793.112      153.33661     -25639.775      184.36476      190.3903       180.99238    
     48900  -25784.326      151.28769     -25633.038      184.31986      190.35172      181.06513    
     49000  -25773.401      151.92027     -25621.481      184.27992      190.31743      181.13787    
     49100  -25766.102      156.00716     -25610.095      184.23809      190.28108      181.21062    
     49200  -25756.918      154.21948     -25602.698      184.19484      190.24339      181.28337    
     49300  -25748.862      153.5682      -25595.293      184.15698      190.20848      181.35611    
     49400  -25740.883      154.04205     -25586.84       184.11352      190.16918      181.42886    
     49500  -25732.531      153.99934     -25578.532      184.07372      190.13518      181.50161    
     49600  -25720.157      150.25105     -25569.906      184.02992      190.1027       181.57435    
     49700  -25712.866      153.3776      -25559.489      183.98027      190.06933      181.6471     
     49800  -25704.713      156.99088     -25547.722      183.93436      190.03886      181.71984    
     49900  -25694.56       154.80157     -25539.759      183.88602      190.00421      181.79259    
     50000  -25688.36       152.7263      -25535.634      183.84054      189.97022      181.86534    
     50100  -25679.895      152.38991     -25527.505      183.79648      189.93618      181.93808    
     50200  -25668.506      151.63299     -25516.873      183.75159      189.89972      182.01083    
     50300  -25659.861      155.39017     -25504.471      183.70934      189.86486      182.08357    
     50400  -25651.596      158.15076     -25493.445      183.6643       189.82721      182.15632    
     50500  -25641.899      153.72574     -25488.173      183.62086      189.79153      182.22907    
     50600  -25634.384      151.18325     -25483.201      183.57686      189.75572      182.30181    
     50700  -25626.125      151.34442     -25474.781      183.53193      189.72043      182.37456    
     50800  -25618.472      154.19125     -25464.281      183.48941      189.68824      182.44731    
     50900  -25607.614      155.18817     -25452.426      183.44223      189.65211      182.52005    
     51000  -25597.968      156.12479     -25441.844      183.39969      189.6196       182.5928     
     51100  -25589.163      152.6965      -25436.467      183.35437      189.58383      182.66554    
     51200  -25582.255      151.04934     -25431.205      183.30755      189.54573      182.73829    
     51300  -25576.83       154.90618     -25421.924      183.26409      189.51108      182.81104    
     51400  -25563.412      153.0463      -25410.366      183.21528      189.47292      182.88378    
     51500  -25554.846      157.3341      -25397.512      183.17044      189.44053      182.95653    
     51600  -25543.526      155.15927     -25388.367      183.12464      189.40978      183.02927    
     51700  -25538.819      153.12536     -25385.693      183.07548      189.37557      183.10202    
     51800  -25531.263      153.66023     -25377.603      183.03345      189.34514      183.17477    
     51900  -25519.372      152.89214     -25366.48       182.98759      189.30924      183.24751    
     52000  -25512.327      157.63048     -25354.696      182.94134      189.27232      183.32026    
     52100  -25497.379      152.11797     -25345.261      182.90202      189.23971      183.39301    
     52200  -25491.434      149.85204     -25341.582      182.85712      189.19996      183.46575    
     52300  -25486.316      152.3386      -25333.977      182.81924      189.16544      183.5385     
     52400  -25477.873      154.91707     -25322.956      182.77858      189.12852      183.61124    
     52500  -25464.414      153.51691     -25310.897      182.73432      189.08932      183.68399    
     52600  -25456.47       157.02327     -25299.447      182.6961       189.05583      183.75674    
     52700  -25448.015      156.35511     -25291.659      182.65039      189.01698      183.82948    
     52800  -25439.099      151.38833     -25287.711      182.60743      188.98184      183.90223    
     52900  -25431.493      151.62566     -25279.867      182.56713      188.94828      183.97497    
     53000  -25421.983      151.62688     -25270.357      182.52159      188.91002      184.04772    
     53100  -25415.89       157.58409     -25258.306      182.48392      188.87845      184.12047    
     53200  -25403.169      156.51323     -25246.656      182.44388      188.84432      184.19321    
     53300  -25393.685      152.51159     -25241.174      182.40184      188.8077       184.26596    
     53400  -25390.567      154.9019      -25235.665      182.36771      188.77729      184.3387     
     53500  -25381.326      155.0752      -25226.251      182.32352      188.73927      184.41145    
     53600  -25366.517      151.47192     -25215.045      182.28559      188.70521      184.4842     
     53700  -25359.984      156.25527     -25203.728      182.24901      188.67036      184.55694    
     53800  -25350.384      156.10294     -25194.281      182.20731      188.63006      184.62969    
     53900  -25344.043      154.59733     -25189.445      182.1759       188.59875      184.70244    
     54000  -25335.095      151.74761     -25183.347      182.13607      188.56147      184.77518    
     54100  -25326.92       153.55517     -25173.365      182.09595      188.52443      184.84793    
     54200  -25314.727      153.71038     -25161.016      182.06115      188.49364      184.92067    
     54300  -25304.986      156.62533     -25148.361      182.01787      188.45899      184.99342    
     54400  -25294.369      156.5769      -25137.793      181.97875      188.42885      185.06617    
     54500  -25291.145      157.23103     -25133.914      181.94086      188.40024      185.13891    
     54600  -25280.722      152.62741     -25128.095      181.90058      188.36705      185.21166    
     54700  -25270.932      151.06528     -25119.867      181.86822      188.33733      185.2844     
     54800  -25260.788      151.39024     -25109.397      181.8328       188.30253      185.35715    
     54900  -25251.041      153.25444     -25097.786      181.79772      188.2668       185.4299     
     55000  -25240.948      153.42035     -25087.527      181.76628      188.23394      185.50264    
     55100  -25234.573      152.59905     -25081.974      181.73048      188.19808      185.57539    
     55200  -25228.769      153.18601     -25075.583      181.69651      188.16465      185.64814    
     55300  -25218.663      152.88626     -25065.777      181.66137      188.1333       185.72088    
     55400  -25206.443      152.64082     -25053.803      181.62357      188.10182      185.79363    
     55500  -25196.006      155.8938      -25040.112      181.58894      188.07629      185.86637    
     55600  -25190.765      158.46879     -25032.296      181.55046      188.04739      185.93912    
     55700  -25181.68       153.04538     -25028.634      181.51324      188.01913      186.01187    
     55800  -25173.607      153.42439     -25020.182      181.47962      187.99246      186.08461    
     55900  -25165.043      153.98602     -25011.057      181.444        187.96343      186.15736    
     56000  -25156.559      154.91239     -25001.647      181.41496      187.93623      186.2301     
     56100  -25146.216      152.51622     -24993.7        181.3833       187.90541      186.30285    
     56200  -25138.442      151.89759     -24986.544      181.35362      187.87543      186.3756     
     56300  -25130.711      152.60462     -24978.106      181.32497      187.84714      186.44834    
     56400  -25117.99       151.36453     -24966.625      181.29144      187.81482      186.52109    
     56500  -25110.794      158.47548     -24952.319      181.25985      187.78541      186.59383    
     56600  -25098.025      154.76831     -24943.257      181.22757      187.7583       186.66658    
     56700  -25091.723      154.21693     -24937.506      181.19225      187.73066      186.73933    
     56800  -25083.451      154.60227     -24928.849      181.1626       187.70787      186.81207    
     56900  -25074.231      153.946       -24920.285      181.12836      187.68209      186.88482    
     57000  -25064.5        152.97974     -24911.521      181.09563      187.65765      186.95757    
     57100  -25055.791      153.12046     -24902.671      181.06661      187.63576      187.03031    
     57200  -25047.454      152.83832     -24894.615      181.03413      187.61044      187.10306    
     57300  -25037.923      152.06349     -24885.86       181.00428      187.58678      187.1758     
     57400  -25028.993      153.9856      -24875.008      180.97453      187.56159      187.24855    
     57500  -25016.18       154.20648     -24861.973      180.94571      187.5348       187.3213     
     57600  -25008.539      157.18158     -24851.357      180.9203       187.50827      187.39404    
     57700  -25000.926      154.13925     -24846.787      180.89161      187.47921      187.46679    
     57800  -24991.545      152.41817     -24839.127      180.86469      187.45444      187.53953    
     57900  -24982.05       152.92116     -24829.129      180.83529      187.43149      187.61228    
     58000  -24973.993      154.74364     -24819.25       180.80446      187.40992      187.68503    
     58100  -24962.754      152.1892      -24810.565      180.77443      187.39057      187.75777    
     58200  -24956.967      153.28451     -24803.682      180.74463      187.37062      187.83052    
     58300  -24945.835      151.20802     -24794.627      180.71653      187.34986      187.90327    
     58400  -24936.419      154.90908     -24781.51       180.69049      187.32864      187.97601    
     58500  -24924.975      157.18467     -24767.79       180.66224      187.30411      188.04876    
     58600  -24916.221      156.41038     -24759.811      180.63708      187.2809       188.1215     
     58700  -24907.556      154.65577     -24752.9        180.61198      187.25747      188.19425    
     58800  -24898.808      153.60234     -24745.206      180.58635      187.23367      188.267      
     58900  -24890.481      153.18059     -24737.3        180.56326      187.21113      188.33974    
     59000  -24880.812      152.25775     -24728.554      180.54023      187.18876      188.41249    
     59100  -24872.15       152.54777     -24719.602      180.51551      187.16629      188.48523    
     59200  -24864.737      153.65911     -24711.078      180.49039      187.14605      188.55798    
     59300  -24854.29       152.54644     -24701.743      180.46397      187.12681      188.63073    
     59400  -24843.111      152.30894     -24690.802      180.43644      187.10707      188.70347    
     59500  -24830.902      153.73122     -24677.171      180.41066      187.08703      188.77622    
     59600  -24821.782      156.42483     -24665.357      180.38868      187.06745      188.84897    
     59700  -24815.552      155.77775     -24659.774      180.36627      187.04654      188.92171    
     59800  -24807.261      154.27782     -24652.983      180.34533      187.02548      188.99446    
     59900  -24796.55       152.90954     -24643.641      180.32403      187.00432      189.0672     
     60000  -24789.228      154.56777     -24634.66       180.30136      186.98384      189.13995    
     60100  -24776.407      151.72794     -24624.679      180.27782      186.96384      189.2127     
     60200  -24767.661      153.3959      -24614.265      180.25375      186.94531      189.28544    
     60300  -24759.027      154.60967     -24604.418      180.22814      186.92828      189.35819    
     60400  -24748.797      151.67007     -24597.127      180.20282      186.91457      189.43093    
     60500  -24742.265      153.08207     -24589.183      180.1774       186.90263      189.50368    
     60600  -24733.403      154.2373      -24579.165      180.15016      186.88799      189.57643    
     60700  -24719.694      155.65022     -24564.044      180.12759      186.87456      189.64917    
     60800  -24706.81       155.2564      -24551.554      180.10314      186.85579      189.72192    
     60900  -24701.561      157.22987     -24544.331      180.08311      186.83466      189.79466    
     61000  -24692.89       155.82069     -24537.069      180.06696      186.81176      189.86741    
     61100  -24682.339      154.16566     -24528.174      180.04594      186.78373      189.94016    
     61200  -24672.452      153.6499      -24518.802      180.03312      186.76397      190.0129     
     61300  -24663.573      152.06632     -24511.507      180.01387      186.74246      190.08565    
     61400  -24654.583      150.63002     -24503.953      179.99388      186.72549      190.1584     
     61500  -24646.816      155.0842      -24491.731      179.97417      186.71165      190.23114    
     61600  -24630.077      154.95446     -24475.123      179.94631      186.69448      190.30389    
     61700  -24621.367      156.02259     -24465.344      179.92613      186.68322      190.37663    
     61800  -24615.113      155.76711     -24459.346      179.90045      186.66681      190.44938    
     61900  -24604.283      153.74696     -24450.536      179.87797      186.65184      190.52213    
     62000  -24597.197      156.07569     -24441.121      179.86028      186.63867      190.59487    
     62100  -24584.193      151.86085     -24432.332      179.83869      186.62061      190.66762    
     62200  -24576.943      152.24899     -24424.694      179.82182      186.60535      190.74036    
     62300  -24565.948      149.54584     -24416.402      179.80311      186.58717      190.81311    
     62400  -24557.886      153.70447     -24404.182      179.78444      186.56804      190.88586    
     62500  -24541.762      153.85035     -24387.912      179.76739      186.5513       190.9586     
     62600  -24533.445      156.65389     -24376.791      179.74568      186.53148      191.03135    
     62700  -24521.971      152.53783     -24369.434      179.73003      186.51652      191.1041     
     62800  -24514.01       153.37346     -24360.637      179.71095      186.49849      191.17684    
     62900  -24502.366      151.67992     -24350.686      179.6944       186.48302      191.24959    
     63000  -24497.069      155.87922     -24341.19       179.67811      186.46898      191.32233    
     63100  -24486.521      153.01227     -24333.509      179.65465      186.45374      191.39508    
     63200  -24476.759      150.93055     -24325.829      179.63229      186.44378      191.46783    
     63300  -24467.754      148.58219     -24319.172      179.60674      186.43237      191.54057    
     63400  -24458.68       150.26357     -24308.417      179.58255      186.42019      191.61332    
     63500  -24446.081      154.98359     -24291.097      179.56183      186.40737      191.68606    
     63600  -24431.532      153.58659     -24277.945      179.54178      186.3918       191.75881    
     63700  -24421.195      154.80962     -24266.386      179.52597      186.37781      191.83156    
     63800  -24412.445      154.15057     -24258.295      179.50931      186.36235      191.9043     
     63900  -24404.417      154.20332     -24250.214      179.49152      186.34734      191.97705    
     64000  -24393.741      155.1382      -24238.603      179.47374      186.33385      192.0498     
     64100  -24379.619      152.59641     -24227.023      179.4525       186.31917      192.12254    
     64200  -24369.857      152.93848     -24216.919      179.43189      186.30644      192.19529    
     64300  -24360.268      150.25587     -24210.012      179.4101       186.29461      192.26803    
     64400  -24350.034      150.95206     -24199.082      179.38819      186.28317      192.34078    
     64500  -24339.817      154.87151     -24184.946      179.36694      186.27191      192.41353    
     64600  -24325.856      156.69184     -24169.164      179.34559      186.25908      192.48627    
     64700  -24313.678      155.16017     -24158.518      179.32679      186.24634      192.55902    
     64800  -24305.864      153.44608     -24152.418      179.30761      186.23125      192.63176    
     64900  -24296.809      154.45827     -24142.351      179.28733      186.21656      192.70451    
     65000  -24285.376      153.50727     -24131.868      179.26827      186.20561      192.77726    
     65100  -24273.441      151.59259     -24121.848      179.24562      186.19254      192.85       
     65200  -24264.908      152.75444     -24112.154      179.22534      186.18348      192.92275    
     65300  -24252.034      149.0565      -24102.977      179.20351      186.17342      192.99549    
     65400  -24242.325      149.94968     -24092.376      179.18373      186.16262      193.06824    
     65500  -24231.367      151.41838     -24079.949      179.16647      186.15058      193.14099    
     65600  -24220.266      156.08128     -24064.185      179.14684      186.13425      193.21373    
     65700  -24204.696      155.48866     -24049.208      179.1294       186.1194       193.28648    
     65800  -24194.8        154.53749     -24040.262      179.11097      186.10401      193.35923    
     65900  -24185.889      154.75892     -24031.13       179.09262      186.08998      193.43197    
     66000  -24172.948      152.35123     -24020.597      179.07293      186.07734      193.50472    
     66100  -24162.402      152.32387     -24010.078      179.05194      186.06439      193.57746    
     66200  -24152.52       152.77144     -23999.748      179.03276      186.0537       193.65021    
     66300  -24142.247      152.29877     -23989.949      179.01289      186.04062      193.72296    
     66400  -24130.777      149.25262     -23981.524      178.99405      186.02773      193.7957     
     66500  -24118.802      149.85439     -23968.948      178.97684      186.0143       193.86845    
     66600  -24106.539      155.43137     -23951.108      178.95956      185.99731      193.94119    
     66700  -24091.512      155.45346     -23936.058      178.94537      185.98237      194.01394    
     66800  -24079.43       153.73649     -23925.694      178.92716      185.96362      194.08669    
     66900  -24070.704      154.37981     -23916.324      178.91057      185.94997      194.15943    
     67000  -24059.795      154.01508     -23905.78       178.89022      185.93583      194.23218    
     67100  -24048.994      153.42152     -23895.572      178.86931      185.92378      194.30493    
     67200  -24039.036      154.79372     -23884.242      178.84968      185.91387      194.37767    
     67300  -24023.924      151.53565     -23872.389      178.82756      185.89815      194.45042    
     67400  -24014.823      152.51487     -23862.308      178.81133      185.8855       194.52316    
     67500  -24002.007      149.43548     -23852.572      178.7931       185.86867      194.59591    
     67600  -23988.215      151.1223      -23837.093      178.77522      185.85326      194.66866    
     67700  -23974.879      156.3369      -23818.542      178.75775      185.83793      194.7414     
     67800  -23959.321      153.82069     -23805.5        178.73926      185.82135      194.81415    
     67900  -23951.46       155.40948     -23796.051      178.7235       185.80758      194.88689    
     68000  -23937.752      153.82185     -23783.93       178.70555      185.79164      194.95964    
     68100  -23926.525      153.0372      -23773.488      178.68864      185.77692      195.03239    
     68200  -23917.467      154.98285     -23762.484      178.6717       185.76285      195.10513    
     68300  -23907.798      157.48084     -23750.317      178.65186      185.74709      195.17788    
     68400  -23891.47       154.43857     -23737.031      178.63326      185.7351       195.25062    
     68500  -23877.669      152.75314     -23724.915      178.61148      185.71849      195.32337    
     68600  -23866.19       153.18208     -23713.008      178.59283      185.70381      195.39612    
     68700  -23852.729      153.5559      -23699.174      178.57498      185.68756      195.46886    
     68800  -23841.141      155.37339     -23685.768      178.55698      185.66891      195.54161    
     68900  -23828.617      154.87571     -23673.741      178.54232      185.65328      195.61436    
     69000  -23814.128      153.45964     -23660.669      178.52441      185.63497      195.6871     
     69100  -23798.243      151.70391     -23646.539      178.50695      185.61941      195.75985    
     69200  -23790.2        156.86779     -23633.332      178.48863      185.60374      195.83259    
     69300  -23775.79       155.38992     -23620.4        178.46981      185.58706      195.90534    
     69400  -23763.35       155.03474     -23608.315      178.45251      185.57138      195.97809    
     69500  -23749.167      154.41053     -23594.757      178.43373      185.55252      196.05083    
     69600  -23736.578      155.49988     -23581.078      178.4177       185.53581      196.12358    
     69700  -23725.177      156.88754     -23568.289      178.40044      185.51732      196.19632    
     69800  -23709.965      155.14099     -23554.824      178.38362      185.50013      196.26907    
     69900  -23699.45       157.03933     -23542.41       178.36573      185.48191      196.34182    
     70000  -23683.7        154.4683      -23529.231      178.34785      185.46388      196.41456    
     70100  -23672.065      156.29509     -23515.77       178.33015      185.44585      196.48731    
     70200  -23662.15       159.77745     -23502.372      178.31175      185.42679      196.56006    
     70300  -23642.479      154.4657      -23488.014      178.294        185.40973      196.6328     
     70400  -23627.787      153.94872     -23473.839      178.27403      185.39131      196.70555    
     70500  -23617.244      157.36892     -23459.875      178.25548      185.37403      196.77829    
     70600  -23601.973      154.86494     -23447.108      178.23818      185.35783      196.85104    
     70700  -23589.547      155.93125     -23433.616      178.21929      185.3387       196.92379    
     70800  -23576.077      155.97641     -23420.1        178.20288      185.32169      196.99653    
     70900  -23561.96       155.66483     -23406.296      178.18374      185.30133      197.06928    
     71000  -23548.352      155.43048     -23392.921      178.16508      185.28209      197.14202    
     71100  -23534.958      156.37512     -23378.583      178.14637      185.26376      197.21477    
     71200  -23519.483      153.75973     -23365.724      178.12536      185.24322      197.28752    
     71300  -23508.36       156.25794     -23352.102      178.10839      185.22667      197.36026    
     71400  -23492.612      154.66475     -23337.947      178.08746      185.2058       197.43301    
     71500  -23478.264      156.55877     -23321.705      178.06912      185.18846      197.50576    
     71600  -23465.593      158.38212     -23307.211      178.0504       185.17139      197.5785     
     71700  -23450.023      157.84961     -23292.173      178.02816      185.1518       197.65125    
     71800  -23438.925      161.11736     -23277.808      178.00933      185.13671      197.72399    
     71900  -23420.867      154.97356     -23265.893      177.9864       185.11722      197.79674    
     72000  -23409.005      157.36296     -23251.642      177.96596      185.09951      197.86949    
     72100  -23395.103      157.45116     -23237.652      177.94566      185.08171      197.94223    
     72200  -23379.194      156.9213      -23222.273      177.92279      185.06026      198.01498    
     72300  -23365.502      157.98028     -23207.522      177.90395      185.04298      198.08772    
     72400  -23351.872      160.77463     -23191.097      177.88181      185.02104      198.16047    
     72500  -23332.401      155.78616     -23176.615      177.8628       185.00186      198.23322    
     72600  -23320.747      157.71488     -23163.032      177.84352      184.9818       198.30596    
     72700  -23306.264      158.74564     -23147.518      177.82143      184.95919      198.37871    
[...]
     94200  -28045.715      153.75408     -27891.96       180.73686      188.17584      214.01913    
     94300  -28049.154      154.54596     -27894.608      180.76544      188.18647      214.09187    
     94400  -28049.479      154.27761     -27895.201      180.79237      188.19982      214.16462    
     94500  -28047.288      153.73991     -27893.548      180.81691      188.21075      214.23737    
     94600  -28043.028      152.4939      -27890.534      180.84114      188.21471      214.31011    
     94700  -28044.633      155.44273     -27889.19       180.87059      188.21549      214.38286    
     94800  -28046.225      155.66286     -27890.563      180.89894      188.21591      214.4556     
     94900  -28044.384      151.20531     -27893.178      180.92591      188.21916      214.52835    
     95000  -28044.893      151.25062     -27893.643      180.94909      188.21371      214.6011     
     95100  -28044.274      152.99826     -27891.275      180.9773       188.21031      214.67384    
     95200  -28040.079      151.87745     -27888.201      181.00722      188.20923      214.74659    
     95300  -28041.904      154.73692     -27887.167      181.03988      188.21679      214.81934    
     95400  -28043.827      155.61474     -27888.212      181.06934      188.22085      214.89208    
     95500  -28043.958      153.36534     -27890.593      181.09652      188.21675      214.96483    
     95600  -28045.758      153.22796     -27892.53       181.12472      188.21831      215.03757    
     95700  -28040.897      149.01391     -27891.883      181.15093      188.2235       215.11032    
     95800  -28047.293      157.84721     -27889.446      181.17646      188.22575      215.18307    
     95900  -28042.963      155.32272     -27887.64       181.20249      188.2227       215.25581    
     96000  -28043.846      155.61023     -27888.236      181.22567      188.21772      215.32856    
     96100  -28046.991      156.05965     -27890.931      181.25         188.2082       215.4013     
     96200  -28046.804      153.51928     -27893.285      181.27578      188.19633      215.47405    
     96300  -28044.353      150.94549     -27893.408      181.30517      188.1893       215.5468     
     96400  -28044.51       153.7434      -27890.766      181.33408      188.18138      215.61954    
     96500  -28041.249      154.34152     -27886.908      181.35799      188.1725       215.69229    
     96600  -28037.976      152.96631     -27885.01       181.38256      188.17389      215.76503    
     96700  -28042.018      154.66236     -27887.356      181.40442      188.17887      215.83778    
     96800  -28042.896      152.45106     -27890.445      181.42808      188.18488      215.91053    
     96900  -28043.043      152.42696     -27890.616      181.45136      188.18944      215.98327    
     97000  -28040.782      152.97346     -27887.809      181.47669      188.19248      216.05602    
     97100  -28037.902      154.19682     -27883.706      181.4977       188.18905      216.12877    
     97200  -28038.883      156.61705     -27882.266      181.51974      188.19161      216.20151    
     97300  -28036.94       152.89898     -27884.041      181.53725      188.19658      216.27426    
     97400  -28041.171      154.43262     -27886.738      181.55568      188.20863      216.347      
     97500  -28039.746      151.86805     -27887.878      181.5675       188.21456      216.41975    
     97600  -28040.92       154.75411     -27886.165      181.58387      188.21989      216.4925     
     97700  -28038.148      154.87833     -27883.269      181.5931       188.21909      216.56524    
     97800  -28038.979      157.48101     -27881.498      181.60352      188.21964      216.63799    
     97900  -28036.624      153.9973      -27882.627      181.62055      188.22255      216.71073    
     98000  -28037.755      151.11212     -27886.643      181.63328      188.21952      216.78348    
     98100  -28043.348      153.35487     -27889.993      181.64035      188.21733      216.85623    
     98200  -28041.165      151.61656     -27889.549      181.64508      188.21615      216.92897    
     98300  -28039.902      154.38146     -27885.52       181.65289      188.21666      217.00172    
     98400  -28035.993      155.13132     -27880.862      181.65687      188.20922      217.07447    
     98500  -28036.197      155.68498     -27880.512      181.65889      188.19953      217.14721    
     98600  -28040.498      155.97045     -27884.528      181.66159      188.1869       217.21996    
     98700  -28040.157      150.68686     -27889.471      181.66337      188.17559      217.2927     
     98800  -28042.047      151.98697     -27890.06       181.6657       188.1691       217.36545    
     98900  -28040.779      153.90845     -27886.87       181.66722      188.15988      217.4382     
     99000  -28037.66       154.92403     -27882.736      181.66924      188.14368      217.51094    
     99100  -28035.869      154.96519     -27880.903      181.67286      188.12412      217.58369    
     99200  -28037.108      153.08108     -27884.027      181.67243      188.11245      217.65643    
     99300  -28039.299      151.09775     -27888.201      181.66706      188.1035       217.72918    
     99400  -28040.273      151.1872      -27889.085      181.66076      188.08824      217.80193    
     99500  -28036.621      151.03939     -27885.582      181.66162      188.06918      217.87467    
     99600  -28040.118      159.05788     -27881.061      181.65732      188.04479      217.94742    
     99700  -28036.865      156.36608     -27880.499      181.65047      188.02322      218.02017    
     99800  -28038.007      153.63026     -27884.377      181.64858      188.01124      218.09291    
     99900  -28040.125      151.19816     -27888.927      181.65156      187.99776      218.16566    
    100000  -28042.95       152.76181     -27890.188      181.6479       187.97946      218.2384     
    100100  -28039.578      152.06325     -27887.515      181.64578      187.96412      218.31115    
    100200  -28039.59       155.51151     -27884.078      181.64636      187.94974      218.3839     
    100300  -28036.066      152.85467     -27883.211      181.64323      187.93799      218.45664    
    100400  -28038.229      152.9377      -27885.291      181.64189      187.93756      218.52939    
    100500  -28042.402      153.51345     -27888.888      181.6352       187.93308      218.60213    
    100600  -28040.362      149.5351      -27890.827      181.62689      187.92575      218.67488    
    100700  -28041.099      151.18657     -27889.912      181.61813      187.91247      218.74763    
    100800  -28043.051      156.47654     -27886.575      181.6098       187.89844      218.82037    
    100900  -28038.232      154.95472     -27883.277      181.60473      187.88951      218.89312    
    101000  -28041.165      156.97318     -27884.192      181.59539      187.88521      218.96586    
    101100  -28043.601      154.61936     -27888.981      181.58637      187.87255      219.03861    
    101200  -28043.136      149.65028     -27893.486      181.57579      187.86127      219.11136    
    101300  -28044.554      151.07017     -27893.484      181.56971      187.85533      219.1841     
    101400  -28042.723      153.67345     -27889.05       181.56148      187.84686      219.25685    
    101500  -28039.137      154.59288     -27884.544      181.55053      187.83476      219.3296     
    101600  -28036.846      154.07837     -27882.767      181.53765      187.81693      219.40234    
    101700  -28040.982      155.55963     -27885.423      181.52559      187.79452      219.47509    
    101800  -28043.306      153.64229     -27889.664      181.51615      187.77399      219.54783    
    101900  -28043.78       151.21147     -27892.569      181.50957      187.76206      219.62058    
    102000  -28043.813      152.43824     -27891.374      181.50384      187.74648      219.69333    
    102100  -28039.226      152.59127     -27886.635      181.49818      187.72557      219.76607    
    102200  -28040.169      156.85477     -27883.315      181.48721      187.70213      219.83882    
    102300  -28041.926      157.24998     -27884.676      181.47541      187.681        219.91156    
    102400  -28043.927      155.73775     -27888.189      181.47075      187.66559      219.98431    
    102500  -28042.599      152.66556     -27889.934      181.46388      187.65105      220.05706    
    102600  -28040.844      151.72468     -27889.12       181.45525      187.63723      220.1298     
    102700  -28042.942      156.52294     -27886.419      181.44063      187.61386      220.20255    
    102800  -28036.186      153.38132     -27882.804      181.42884      187.58866      220.2753     
    102900  -28035.58       153.95771     -27881.622      181.42225      187.566        220.34804    
    103000  -28037.156      153.12902     -27884.027      181.40853      187.54129      220.42079    
    103100  -28042.792      154.7294      -27888.062      181.39766      187.51491      220.49353    
    103200  -28039.542      149.68584     -27889.856      181.38488      187.48171      220.56628    
    103300  -28038.47       150.40289     -27888.067      181.37457      187.4583       220.63903    
    103400  -28039.387      155.87544     -27883.511      181.36062      187.42699      220.71177    
    103500  -28037.169      156.00153     -27881.168      181.35098      187.40102      220.78452    
    103600  -28040.355      156.67655     -27883.679      181.33676      187.37491      220.85726    
    103700  -28038.42       150.98723     -27887.433      181.32374      187.34803      220.93001    
    103800  -28041.688      152.8307      -27888.857      181.315        187.32378      221.00276    
    103900  -28042.971      155.05817     -27887.913      181.30588      187.29413      221.0755     
    104000  -28038.825      153.24999     -27885.575      181.29872      187.26645      221.14825    
    104100  -28037.596      153.12827     -27884.468      181.28274      187.23669      221.221      
    104200  -28039.069      153.41366     -27885.655      181.27074      187.21001      221.29374    
    104300  -28039.904      152.34795     -27887.556      181.25854      187.17536      221.36649    
    104400  -28042.824      154.16887     -27888.655      181.2441       187.13465      221.43923    
    104500  -28043.037      154.79329     -27888.244      181.22568      187.08947      221.51198    
    104600  -28043.174      155.6742      -27887.5        181.21064      187.04338      221.58473    
    104700  -28040.765      153.67172     -27887.093      181.20164      187.00066      221.65747    
    104800  -28043.578      155.41423     -27888.164      181.19003      186.95698      221.73022    
    104900  -28043          154.03377     -27888.967      181.18227      186.91635      221.80296    
    105000  -28040.952      151.2512      -27889.701      181.16704      186.87762      221.87571    
    105100  -28040.418      151.02292     -27889.395      181.14346      186.8408       221.94846    
    105200  -28039.636      151.17501     -27888.461      181.12582      186.80335      222.0212     
    105300  -28043.661      154.94401     -27888.717      181.10474      186.76291      222.09395    
    105400  -28042.505      153.97629     -27888.529      181.08252      186.72607      222.16669    
    105500  -28044.044      154.50938     -27889.534      181.06354      186.69355      222.23944    
    105600  -28046.255      154.89291     -27891.362      181.05159      186.65972      222.31219    
    105700  -28047.45       154.87827     -27892.572      181.03943      186.62333      222.38493    
    105800  -28042.395      151.34408     -27891.051      181.0222       186.58234      222.45768    
    105900  -28043.238      154.75057     -27888.487      181.0072       186.54535      222.53043    
    106000  -28039.279      152.17041     -27887.109      180.99132      186.50259      222.60317    
    106100  -28042.161      155.09988     -27887.061      180.98072      186.46692      222.67592    
    106200  -28041.544      153.17645     -27888.368      180.96541      186.42945      222.74866    
    106300  -28043.537      153.87835     -27889.659      180.94528      186.38939      222.82141    
    106400  -28041.027      151.2579      -27889.769      180.92421      186.34806      222.89416    
    106500  -28042.705      154.17943     -27888.525      180.90578      186.30183      222.9669     
    106600  -28039.029      151.61708     -27887.412      180.89407      186.26485      223.03965    
    106700  -28042.089      154.84995     -27887.239      180.8774       186.23147      223.11239    
    106800  -28042.204      153.8238      -27888.38       180.86467      186.19896      223.18514    
    106900  -28042.729      153.28355     -27889.445      180.84752      186.15384      223.25789    
    107000  -28045.271      156.10148     -27889.17       180.83399      186.10945      223.33063    
    107100  -28042.624      154.59888     -27888.025      180.82096      186.07268      223.40338    
    107200  -28040.435      152.14451     -27888.29       180.80535      186.03163      223.47613    
    107300  -28040.934      151.99142     -27888.942      180.79597      185.99092      223.54887    
    107400  -28042.193      153.74096     -27888.452      180.7801       185.94261      223.62162    
    107500  -28043.425      156.01686     -27887.409      180.76603      185.89691      223.69436    
    107600  -28044.168      157.62499     -27886.543      180.74931      185.85934      223.76711    
    107700  -28042.477      154.94652     -27887.53       180.73212      185.82536      223.83986    
    107800  -28041.743      152.00629     -27889.737      180.71183      185.7824       223.9126     
    107900  -28041.925      151.28496     -27890.64       180.69012      185.73553      223.98535    
    108000  -28042.864      152.17289     -27890.691      180.66372      185.69425      224.05809    
    108100  -28041.257      152.09517     -27889.162      180.63469      185.65252      224.13084    
    108200  -28042.932      155.40614     -27887.526      180.60834      185.61123      224.20359    
    108300  -28043.105      154.4682      -27888.637      180.58159      185.57368      224.27633    
    108400  -28041.484      150.71523     -27890.769      180.54994      185.53255      224.34908    
    108500  -28042.965      151.71491     -27891.25       180.52531      185.49015      224.42182    
    108600  -28043.476      155.03117     -27888.445      180.49238      185.44146      224.49457    
    108700  -28042.015      155.88802     -27886.127      180.46664      185.39839      224.56732    
    108800  -28039.771      153.48279     -27886.288      180.43661      185.34185      224.64006    
    108900  -28042.41       153.7827      -27888.627      180.40843      185.28258      224.71281    
    109000  -28043.051      152.34149     -27890.709      180.3744       185.22114      224.78556    
    109100  -28042.384      150.7191      -27891.665      180.33757      185.15726      224.8583     
    109200  -28044.588      154.17932     -27890.409      180.30588      185.0984       224.93105    
    109300  -28045.272      156.17638     -27889.096      180.2653       185.03166      225.00379    
    109400  -28043.556      153.88721     -27889.669      180.23345      184.97384      225.07654    
    109500  -28046.127      154.68714     -27891.44       180.19686      184.91318      225.14929    
    109600  -28045.569      153.28172     -27892.288      180.16474      184.85555      225.22203    
    109700  -28044.224      152.97617     -27891.248      180.13107      184.79476      225.29478    
    109800  -28045.44       155.22089     -27890.219      180.09732      184.73703      225.36752    
    109900  -28044.243      153.4339      -27890.809      180.07506      184.68378      225.44027    
    110000  -28043.02       151.4831      -27891.537      180.04146      184.63037      225.51302    
    110100  -28043.311      152.43983     -27890.871      180.01423      184.58497      225.58576    

===================================================================================
=   BAD TERMINATION OF ONE OF YOUR APPLICATION PROCESSES
=   RANK 0 PID 1066908 RUNNING AT amax
=   KILLED BY SIGNAL: 15 (Terminated)
===================================================================================

===================================================================================
=   BAD TERMINATION OF ONE OF YOUR APPLICATION PROCESSES
=   RANK 1 PID 1066910 RUNNING AT amax
=   KILLED BY SIGNAL: 15 (Terminated)
===================================================================================

===================================================================================
=   BAD TERMINATION OF ONE OF YOUR APPLICATION PROCESSES
=   RANK 2 PID 1066913 RUNNING AT amax
=   KILLED BY SIGNAL: 15 (Terminated)
===================================================================================

===================================================================================
=   BAD TERMINATION OF ONE OF YOUR APPLICATION PROCESSES
=   RANK 3 PID 1066917 RUNNING AT amax
=   KILLED BY SIGNAL: 15 (Terminated)
===================================================================================

===================================================================================
=   BAD TERMINATION OF ONE OF YOUR APPLICATION PROCESSES
=   RANK 4 PID 1066920 RUNNING AT amax
=   KILLED BY SIGNAL: 15 (Terminated)
===================================================================================

===================================================================================
=   BAD TERMINATION OF ONE OF YOUR APPLICATION PROCESSES
=   RANK 5 PID 1066921 RUNNING AT amax
=   KILLED BY SIGNAL: 15 (Terminated)
===================================================================================

===================================================================================
=   BAD TERMINATION OF ONE OF YOUR APPLICATION PROCESSES
=   RANK 6 PID 1066923 RUNNING AT amax
=   KILLED BY SIGNAL: 15 (Terminated)
===================================================================================

===================================================================================
=   BAD TERMINATION OF ONE OF YOUR APPLICATION PROCESSES
=   RANK 7 PID 1066924 RUNNING AT amax
=   KILLED BY SIGNAL: 15 (Terminated)
===================================================================================

===================================================================================
=   BAD TERMINATION OF ONE OF YOUR APPLICATION PROCESSES
=   RANK 8 PID 1066926 RUNNING AT amax
=   KILLED BY SIGNAL: 15 (Terminated)
===================================================================================

===================================================================================
=   BAD TERMINATION OF ONE OF YOUR APPLICATION PROCESSES
=   RANK 9 PID 1066927 RUNNING AT amax
=   KILLED BY SIGNAL: 15 (Terminated)
===================================================================================

===================================================================================
=   BAD TERMINATION OF ONE OF YOUR APPLICATION PROCESSES
=   RANK 10 PID 1066929 RUNNING AT amax
=   KILLED BY SIGNAL: 15 (Terminated)
===================================================================================

===================================================================================
=   BAD TERMINATION OF ONE OF YOUR APPLICATION PROCESSES
=   RANK 11 PID 1066931 RUNNING AT amax
=   KILLED BY SIGNAL: 15 (Terminated)
===================================================================================
