LAMMPS data file via write_data, version 2 Aug 2023, timestep = 0, units = metal

3960 atoms
3 atom types

-100 100 xlo xhi
-100 100 ylo yhi
-2.3312515 143.16101749999999 zlo zhi

Masses

1 12.0107
2 12.0107
3 12.0107

Atoms # atomic

8 1 -1.392903 -7.899546 0 0 0 0
9 1 -4.010705 -6.946744 0 0 0 0
10 1 -5.156062 -6.144756 0 0 0 0
11 1 -6.946744 -4.010705 0 0 0 0
12 1 -7.537659 -2.743484 0 0 0 0
31 1 -2.076093 -7.748086 1.212436 0 0 0
32 1 -3.389994 -7.269866 1.212436 0 0 0
33 1 -5.671993 -5.671993 1.212436 0 0 0
34 1 -6.570754 -4.600891 1.212436 0 0 0
35 1 -7.748086 -2.076093 1.212436 0 0 0
36 1 -7.990885 -0.699112 1.212436 0 0 0
54 1 -1.392903 -7.899546 2.424871 0 0 0
55 1 -4.010705 -6.946744 2.424871 0 0 0
56 1 -5.156062 -6.144756 2.424871 0 0 0
57 1 -6.946744 -4.010705 2.424871 0 0 0
58 1 -7.537659 -2.743484 2.424871 0 0 0
77 1 -2.076093 -7.748086 3.637307 0 0 0
78 1 -3.389994 -7.269866 3.637307 0 0 0
79 1 -5.671993 -5.671993 3.637307 0 0 0
80 1 -6.570754 -4.600891 3.637307 0 0 0
81 1 -7.748086 -2.076093 3.637307 0 0 0
82 1 -7.990885 -0.699112 3.637307 0 0 0
100 1 -1.392903 -7.899546 4.849742 0 0 0
101 1 -4.010705 -6.946744 4.849742 0 0 0
102 1 -5.156062 -6.144756 4.849742 0 0 0
103 1 -6.946744 -4.010705 4.849742 0 0 0
104 1 -7.537659 -2.743484 4.849742 0 0 0
123 1 -2.076093 -7.748086 6.062178 0 0 0
124 1 -3.389994 -7.269866 6.062178 0 0 0
125 1 -5.671993 -5.671993 6.062178 0 0 0
126 1 -6.570754 -4.600891 6.062178 0 0 0
127 1 -7.748086 -2.076093 6.062178 0 0 0
128 1 -7.990885 -0.699112 6.062178 0 0 0
146 1 -1.392903 -7.899546 7.274613 0 0 0
147 1 -4.010705 -6.946744 7.274613 0 0 0
148 1 -5.156062 -6.144756 7.274613 0 0 0
149 1 -6.946744 -4.010705 7.274613 0 0 0
150 1 -7.537659 -2.743484 7.274613 0 0 0
169 1 -2.076093 -7.748086 8.487049 0 0 0
170 1 -3.389994 -7.269866 8.487049 0 0 0
171 1 -5.671993 -5.671993 8.487049 0 0 0
172 1 -6.570754 -4.600891 8.487049 0 0 0
173 1 -7.748086 -2.076093 8.487049 0 0 0
174 1 -7.990885 -0.699112 8.487049 0 0 0
193 1 -4.010705 -6.946744 9.699485 0 0 0
194 1 -5.156062 -6.144756 9.699485 0 0 0
195 1 -6.946744 -4.010705 9.699485 0 0 0
196 1 -7.537659 -2.743484 9.699485 0 0 0
216 1 -1.392903 -7.899546 9.699485 0 0 0
217 1 -5.671993 -5.671993 10.91192 0 0 0
218 1 -6.570754 -4.600891 10.91192 0 0 0
219 1 -7.748086 -2.076093 10.91192 0 0 0
220 1 -7.990885 -0.699112 10.91192 0 0 0
239 1 -2.076093 -7.748086 10.91192 0 0 0
240 1 -3.389994 -7.269866 10.91192 0 0 0
241 1 -6.946744 -4.010705 12.124356 0 0 0
242 1 -7.537659 -2.743484 12.124356 0 0 0
262 1 -1.392903 -7.899546 12.124356 0 0 0
263 1 -4.010705 -6.946744 12.124356 0 0 0
264 1 -5.156062 -6.144756 12.124356 0 0 0
265 1 -7.748086 -2.076093 13.336791 0 0 0
266 1 -7.990885 -0.699112 13.336791 0 0 0
285 1 -2.076093 -7.748086 13.336791 0 0 0
286 1 -3.389994 -7.269866 13.336791 0 0 0
287 1 -5.671993 -5.671993 13.336791 0 0 0
288 1 -6.570754 -4.600891 13.336791 0 0 0
308 1 -1.392903 -7.899546 14.549227 0 0 0
309 1 -4.010705 -6.946744 14.549227 0 0 0
310 1 -5.156062 -6.144756 14.549227 0 0 0
311 1 -6.946744 -4.010705 14.549227 0 0 0
312 1 -7.537659 -2.743484 14.549227 0 0 0
331 1 -2.076093 -7.748086 15.761662 0 0 0
332 1 -3.389994 -7.269866 15.761662 0 0 0
333 1 -5.671993 -5.671993 15.761662 0 0 0
334 1 -6.570754 -4.600891 15.761662 0 0 0
335 1 -7.748086 -2.076093 15.761662 0 0 0
336 1 -7.990885 -0.699112 15.761662 0 0 0
354 1 -1.392903 -7.899546 16.974098 0 0 0
355 1 -4.010705 -6.946744 16.974098 0 0 0
356 1 -5.156062 -6.144756 16.974098 0 0 0
357 1 -6.946744 -4.010705 16.974098 0 0 0
358 1 -7.537659 -2.743484 16.974098 0 0 0
377 1 -2.076093 -7.748086 18.186533 0 0 0
378 1 -3.389994 -7.269866 18.186533 0 0 0
379 1 -5.671993 -5.671993 18.186533 0 0 0
380 1 -6.570754 -4.600891 18.186533 0 0 0
381 1 -7.748086 -2.076093 18.186533 0 0 0
382 1 -7.990885 -0.699112 18.186533 0 0 0
400 1 -1.392903 -7.899546 19.398969 0 0 0
401 1 -4.010705 -6.946744 19.398969 0 0 0
402 1 -5.156062 -6.144756 19.398969 0 0 0
403 1 -6.946744 -4.010705 19.398969 0 0 0
404 1 -7.537659 -2.743484 19.398969 0 0 0
423 1 -2.076093 -7.748086 20.611405 0 0 0
424 1 -3.389994 -7.269866 20.611405 0 0 0
425 1 -5.671993 -5.671993 20.611405 0 0 0
426 1 -6.570754 -4.600891 20.611405 0 0 0
427 1 -7.748086 -2.076093 20.611405 0 0 0
428 1 -7.990885 -0.699112 20.611405 0 0 0
446 1 -1.392903 -7.899546 21.82384 0 0 0
447 1 -4.010705 -6.946744 21.82384 0 0 0
448 1 -5.156062 -6.144756 21.82384 0 0 0
449 1 -6.946744 -4.010705 21.82384 0 0 0
450 1 -7.537659 -2.743484 21.82384 0 0 0
469 1 -2.076093 -7.748086 23.036276 0 0 0
470 1 -3.389994 -7.269866 23.036276 0 0 0
471 1 -5.671993 -5.671993 23.036276 0 0 0
472 1 -6.570754 -4.600891 23.036276 0 0 0
473 1 -7.748086 -2.076093 23.036276 0 0 0
474 1 -7.990885 -0.699112 23.036276 0 0 0
492 1 -1.392903 -7.899546 24.248711 0 0 0
493 1 -4.010705 -6.946744 24.248711 0 0 0
494 1 -5.156062 -6.144756 24.248711 0 0 0
495 1 -6.946744 -4.010705 24.248711 0 0 0
496 1 -7.537659 -2.743484 24.248711 0 0 0
515 1 -2.076093 -7.748086 25.461147 0 0 0
516 1 -3.389994 -7.269866 25.461147 0 0 0
517 1 -5.671993 -5.671993 25.461147 0 0 0
518 1 -6.570754 -4.600891 25.461147 0 0 0
519 1 -7.748086 -2.076093 25.461147 0 0 0
520 1 -7.990885 -0.699112 25.461147 0 0 0
538 1 -1.392903 -7.899546 26.673582 0 0 0
539 1 -4.010705 -6.946744 26.673582 0 0 0
540 1 -5.156062 -6.144756 26.673582 0 0 0
541 1 -6.946744 -4.010705 26.673582 0 0 0
542 1 -7.537659 -2.743484 26.673582 0 0 0
561 1 -2.076093 -7.748086 27.886018 0 0 0
562 1 -3.389994 -7.269866 27.886018 0 0 0
563 1 -5.671993 -5.671993 27.886018 0 0 0
564 1 -6.570754 -4.600891 27.886018 0 0 0
565 1 -7.748086 -2.076093 27.886018 0 0 0
566 1 -7.990885 -0.699112 27.886018 0 0 0
584 1 -1.392903 -7.899546 29.098454 0 0 0
585 1 -4.010705 -6.946744 29.098454 0 0 0
586 1 -5.156062 -6.144756 29.098454 0 0 0
587 1 -6.946744 -4.010705 29.098454 0 0 0
588 1 -7.537659 -2.743484 29.098454 0 0 0
607 1 -2.076093 -7.748086 30.310889 0 0 0
608 1 -3.389994 -7.269866 30.310889 0 0 0
609 1 -5.671993 -5.671993 30.310889 0 0 0
610 1 -6.570754 -4.600891 30.310889 0 0 0
611 1 -7.748086 -2.076093 30.310889 0 0 0
612 1 -7.990885 -0.699112 30.310889 0 0 0
630 1 -1.392903 -7.899546 31.523325 0 0 0
631 1 -4.010705 -6.946744 31.523325 0 0 0
632 1 -5.156062 -6.144756 31.523325 0 0 0
633 1 -6.946744 -4.010705 31.523325 0 0 0
634 1 -7.537659 -2.743484 31.523325 0 0 0
653 1 -2.076093 -7.748086 32.73576 0 0 0
654 1 -3.389994 -7.269866 32.73576 0 0 0
655 1 -5.671993 -5.671993 32.73576 0 0 0
656 1 -6.570754 -4.600891 32.73576 0 0 0
657 1 -7.748086 -2.076093 32.73576 0 0 0
658 1 -7.990885 -0.699112 32.73576 0 0 0
676 1 -1.392903 -7.899546 33.948196 0 0 0
677 1 -4.010705 -6.946744 33.948196 0 0 0
678 1 -5.156062 -6.144756 33.948196 0 0 0
679 1 -6.946744 -4.010705 33.948196 0 0 0
680 1 -7.537659 -2.743484 33.948196 0 0 0
699 1 -2.076093 -7.748086 35.160631 0 0 0
700 1 -3.389994 -7.269866 35.160631 0 0 0
701 1 -5.671993 -5.671993 35.160631 0 0 0
702 1 -6.570754 -4.600891 35.160631 0 0 0
703 1 -7.748086 -2.076093 35.160631 0 0 0
704 1 -7.990885 -0.699112 35.160631 0 0 0
722 1 -1.392903 -7.899546 36.373067 0 0 0
723 1 -4.010705 -6.946744 36.373067 0 0 0
724 1 -5.156062 -6.144756 36.373067 0 0 0
725 1 -6.946744 -4.010705 36.373067 0 0 0
726 1 -7.537659 -2.743484 36.373067 0 0 0
745 1 -2.076093 -7.748086 37.585503 0 0 0
746 1 -3.389994 -7.269866 37.585503 0 0 0
747 1 -5.671993 -5.671993 37.585503 0 0 0
748 1 -6.570754 -4.600891 37.585503 0 0 0
749 1 -7.748086 -2.076093 37.585503 0 0 0
750 1 -7.990885 -0.699112 37.585503 0 0 0
769 1 -4.010705 -6.946744 38.797938 0 0 0
770 1 -5.156062 -6.144756 38.797938 0 0 0
771 1 -6.946744 -4.010705 38.797938 0 0 0
772 1 -7.537659 -2.743484 38.797938 0 0 0
792 1 -1.392903 -7.899546 38.797938 0 0 0
793 1 -5.671993 -5.671993 40.010374 0 0 0
794 1 -6.570754 -4.600891 40.010374 0 0 0
795 1 -7.748086 -2.076093 40.010374 0 0 0
796 1 -7.990885 -0.699112 40.010374 0 0 0
815 1 -2.076093 -7.748086 40.010374 0 0 0
816 1 -3.389994 -7.269866 40.010374 0 0 0
817 1 -6.946744 -4.010705 41.222809 0 0 0
818 1 -7.537659 -2.743484 41.222809 0 0 0
838 1 -1.392903 -7.899546 41.222809 0 0 0
839 1 -4.010705 -6.946744 41.222809 0 0 0
840 1 -5.156062 -6.144756 41.222809 0 0 0
841 1 -7.748086 -2.076093 42.435245 0 0 0
842 1 -7.990885 -0.699112 42.435245 0 0 0
861 1 -2.076093 -7.748086 42.435245 0 0 0
862 1 -3.389994 -7.269866 42.435245 0 0 0
863 1 -5.671993 -5.671993 42.435245 0 0 0
864 1 -6.570754 -4.600891 42.435245 0 0 0
884 1 -1.392903 -7.899546 43.64768 0 0 0
885 1 -4.010705 -6.946744 43.64768 0 0 0
886 1 -5.156062 -6.144756 43.64768 0 0 0
887 1 -6.946744 -4.010705 43.64768 0 0 0
888 1 -7.537659 -2.743484 43.64768 0 0 0
907 1 -2.076093 -7.748086 44.860116 0 0 0
908 1 -3.389994 -7.269866 44.860116 0 0 0
909 1 -5.671993 -5.671993 44.860116 0 0 0
910 1 -6.570754 -4.600891 44.860116 0 0 0
911 1 -7.748086 -2.076093 44.860116 0 0 0
912 1 -7.990885 -0.699112 44.860116 0 0 0
930 1 -1.392903 -7.899546 46.072551 0 0 0
931 1 -4.010705 -6.946744 46.072551 0 0 0
932 1 -5.156062 -6.144756 46.072551 0 0 0
933 1 -6.946744 -4.010705 46.072551 0 0 0
934 1 -7.537659 -2.743484 46.072551 0 0 0
953 1 -2.076093 -7.748086 47.284987 0 0 0
954 1 -3.389994 -7.269866 47.284987 0 0 0
955 1 -5.671993 -5.671993 47.284987 0 0 0
956 1 -6.570754 -4.600891 47.284987 0 0 0
957 1 -7.748086 -2.076093 47.284987 0 0 0
958 1 -7.990885 -0.699112 47.284987 0 0 0
963 2 -1.719138 -0.315585 3.176333 0 0 0
977 2 -5.088038 -0.828285 2.603933 0 0 0
979 2 -3.842638 -1.030985 3.182233 0 0 0
985 2 -3.488538 -2.919085 1.744933 0 0 0
986 2 -4.740738 -2.718185 1.172133 0 0 0
987 2 -3.037038 -2.074185 2.753733 0 0 0
988 2 -5.546338 -1.670785 1.602633 0 0 0
989 2 -6.257938 -0.919885 0.678533 0 0 0
990 2 -4.652038 -3.011885 -0.181267 0 0 0
991 2 -5.351938 -2.249685 -1.108567 0 0 0
992 2 -6.162038 -1.200685 -0.679367 0 0 0
993 2 -0.861338 -2.061085 1.744233 0 0 0
994 2 -1.308238 -2.906685 0.737733 0 0 0
995 2 -1.719238 -1.642385 2.751933 0 0 0
996 2 -2.629938 -3.338485 0.738633 0 0 0
997 2 -3.341738 -3.396185 -0.450967 0 0 0
998 2 -0.708838 -2.530785 -0.455567 0 0 0
999 2 -1.418738 -2.577585 -1.649567 0 0 0
1000 2 -2.741738 -3.011185 -1.644667 0 0 0
1002 2 -4.745738 -1.875185 -2.299867 0 0 0
1007 2 -6.063338 -0.168685 -1.602267 0 0 0
1019 2 -0.479338 -0.468085 -2.308667 0 0 0
1049 3 -0.257938 -0.919885 8.674033 0 0 0
1052 3 -0.162038 -1.200685 7.316133 0 0 0
1067 3 -0.063338 -0.168685 6.393233 0 0 0
1083 2 -1.719138 -0.315585 19.167332 0 0 0
1097 2 -5.088038 -0.828285 18.594932 0 0 0
1099 2 -3.842638 -1.030985 19.173232 0 0 0
1105 2 -3.488538 -2.919085 17.735932 0 0 0
1106 2 -4.740738 -2.718185 17.163132 0 0 0
1107 2 -3.037038 -2.074185 18.744732 0 0 0
1108 2 -5.546338 -1.670785 17.593632 0 0 0
1109 2 -6.257938 -0.919885 16.669532 0 0 0
1110 2 -4.652038 -3.011885 15.809732 0 0 0
1111 2 -5.351938 -2.249685 14.882432 0 0 0
1112 2 -6.162038 -1.200685 15.311632 0 0 0
1113 2 -0.861338 -2.061085 17.735232 0 0 0
1114 2 -1.308238 -2.906685 16.728732 0 0 0
1115 2 -1.719238 -1.642385 18.742932 0 0 0
1116 2 -2.629938 -3.338485 16.729632 0 0 0
1117 2 -3.341738 -3.396185 15.540032 0 0 0
1118 2 -0.708838 -2.530785 15.535432 0 0 0
1119 2 -1.418738 -2.577585 14.341432 0 0 0
1120 2 -2.741738 -3.011185 14.346332 0 0 0
1121 2 -5.180538 -0.584085 13.401532 0 0 0
1122 2 -4.745738 -1.875185 13.691132 0 0 0
1123 2 -3.436238 -2.252685 13.414932 0 0 0
1127 2 -6.063338 -0.168685 14.388732 0 0 0
1137 2 -2.551638 -1.355285 12.833332 0 0 0
1138 2 -1.299438 -1.554285 13.408632 0 0 0
1139 2 -0.479338 -0.468085 13.682332 0 0 0
1140 2 -2.975938 -0.070285 12.540932 0 0 0
1169 3 -0.257938 -0.919885 24.665032 0 0 0
1172 3 -0.162038 -1.200685 23.307132 0 0 0
1187 3 -0.063338 -0.168685 22.384232 0 0 0
1203 2 -1.719138 -0.315585 35.158332 0 0 0
1217 2 -5.088038 -0.828285 34.585932 0 0 0
1219 2 -3.842638 -1.030985 35.164232 0 0 0
1225 2 -3.488538 -2.919085 33.726932 0 0 0
1226 2 -4.740738 -2.718185 33.154132 0 0 0
1227 2 -3.037038 -2.074185 34.735732 0 0 0
1228 2 -5.546338 -1.670785 33.584632 0 0 0
1229 2 -6.257938 -0.919885 32.660532 0 0 0
1230 2 -4.652038 -3.011885 31.800732 0 0 0
1231 2 -5.351938 -2.249685 30.873432 0 0 0
1232 2 -6.162038 -1.200685 31.302632 0 0 0
1233 2 -0.861338 -2.061085 33.726232 0 0 0
1234 2 -1.308238 -2.906685 32.719732 0 0 0
1235 2 -1.719238 -1.642385 34.733932 0 0 0
1236 2 -2.629938 -3.338485 32.720632 0 0 0
1237 2 -3.341738 -3.396185 31.531032 0 0 0
1238 2 -0.708838 -2.530785 31.526432 0 0 0
1239 2 -1.418738 -2.577585 30.332432 0 0 0
1240 2 -2.741738 -3.011185 30.337332 0 0 0
1241 2 -5.180538 -0.584085 29.392532 0 0 0
1242 2 -4.745738 -1.875185 29.682132 0 0 0
1243 2 -3.436238 -2.252685 29.405932 0 0 0
1247 2 -6.063338 -0.168685 30.379732 0 0 0
1257 2 -2.551638 -1.355285 28.824332 0 0 0
1258 2 -1.299438 -1.554285 29.399632 0 0 0
1259 2 -0.479338 -0.468085 29.673332 0 0 0
1260 2 -2.975938 -0.070285 28.531932 0 0 0
1289 3 -0.257938 -0.919885 40.656031 0 0 0
1292 3 -0.162038 -1.200685 39.298131 0 0 0
1307 3 -0.063338 -0.168685 38.375231 0 0 0
1328 1 -1.392903 -7.899546 48.497423 0 0 0
1329 1 -4.010705 -6.946744 48.497423 0 0 0
1330 1 -5.156062 -6.144756 48.497423 0 0 0
1331 1 -6.946744 -4.010705 48.497423 0 0 0
1332 1 -7.537659 -2.743484 48.497423 0 0 0
1351 1 -2.076093 -7.748086 49.709858999999994 0 0 0
1352 1 -3.389994 -7.269866 49.709858999999994 0 0 0
1353 1 -5.671993 -5.671993 49.709858999999994 0 0 0
1354 1 -6.570754 -4.600891 49.709858999999994 0 0 0
1355 1 -7.748086 -2.076093 49.709858999999994 0 0 0
1356 1 -7.990885 -0.699112 49.709858999999994 0 0 0
1374 1 -1.392903 -7.899546 50.922294 0 0 0
1375 1 -4.010705 -6.946744 50.922294 0 0 0
1376 1 -5.156062 -6.144756 50.922294 0 0 0
1377 1 -6.946744 -4.010705 50.922294 0 0 0
1378 1 -7.537659 -2.743484 50.922294 0 0 0
1397 1 -2.076093 -7.748086 52.13473 0 0 0
1398 1 -3.389994 -7.269866 52.13473 0 0 0
1399 1 -5.671993 -5.671993 52.13473 0 0 0
1400 1 -6.570754 -4.600891 52.13473 0 0 0
1401 1 -7.748086 -2.076093 52.13473 0 0 0
1402 1 -7.990885 -0.699112 52.13473 0 0 0
1420 1 -1.392903 -7.899546 53.347165 0 0 0
1421 1 -4.010705 -6.946744 53.347165 0 0 0
1422 1 -5.156062 -6.144756 53.347165 0 0 0
1423 1 -6.946744 -4.010705 53.347165 0 0 0
1424 1 -7.537659 -2.743484 53.347165 0 0 0
1443 1 -2.076093 -7.748086 54.559601 0 0 0
1444 1 -3.389994 -7.269866 54.559601 0 0 0
1445 1 -5.671993 -5.671993 54.559601 0 0 0
1446 1 -6.570754 -4.600891 54.559601 0 0 0
1447 1 -7.748086 -2.076093 54.559601 0 0 0
1448 1 -7.990885 -0.699112 54.559601 0 0 0
1466 1 -1.392903 -7.899546 55.772036 0 0 0
1467 1 -4.010705 -6.946744 55.772036 0 0 0
1468 1 -5.156062 -6.144756 55.772036 0 0 0
1469 1 -6.946744 -4.010705 55.772036 0 0 0
1470 1 -7.537659 -2.743484 55.772036 0 0 0
1489 1 -2.076093 -7.748086 56.984472 0 0 0
1490 1 -3.389994 -7.269866 56.984472 0 0 0
1491 1 -5.671993 -5.671993 56.984472 0 0 0
1492 1 -6.570754 -4.600891 56.984472 0 0 0
1493 1 -7.748086 -2.076093 56.984472 0 0 0
1494 1 -7.990885 -0.699112 56.984472 0 0 0
1513 1 -4.010705 -6.946744 58.19690799999999 0 0 0
1514 1 -5.156062 -6.144756 58.19690799999999 0 0 0
1515 1 -6.946744 -4.010705 58.19690799999999 0 0 0
1516 1 -7.537659 -2.743484 58.19690799999999 0 0 0
1536 1 -1.392903 -7.899546 58.19690799999999 0 0 0
1537 1 -5.671993 -5.671993 59.409343 0 0 0
1538 1 -6.570754 -4.600891 59.409343 0 0 0
1539 1 -7.748086 -2.076093 59.409343 0 0 0
1540 1 -7.990885 -0.699112 59.409343 0 0 0
1559 1 -2.076093 -7.748086 59.409343 0 0 0
1560 1 -3.389994 -7.269866 59.409343 0 0 0
1561 1 -6.946744 -4.010705 60.621779 0 0 0
1562 1 -7.537659 -2.743484 60.621779 0 0 0
1582 1 -1.392903 -7.899546 60.621779 0 0 0
1583 1 -4.010705 -6.946744 60.621779 0 0 0
1584 1 -5.156062 -6.144756 60.621779 0 0 0
1585 1 -7.748086 -2.076093 61.834213999999996 0 0 0
1586 1 -7.990885 -0.699112 61.834213999999996 0 0 0
1605 1 -2.076093 -7.748086 61.834213999999996 0 0 0
1606 1 -3.389994 -7.269866 61.834213999999996 0 0 0
1607 1 -5.671993 -5.671993 61.834213999999996 0 0 0
1608 1 -6.570754 -4.600891 61.834213999999996 0 0 0
1628 1 -1.392903 -7.899546 63.04665 0 0 0
1629 1 -4.010705 -6.946744 63.04665 0 0 0
1630 1 -5.156062 -6.144756 63.04665 0 0 0
1631 1 -6.946744 -4.010705 63.04665 0 0 0
1632 1 -7.537659 -2.743484 63.04665 0 0 0
1651 1 -2.076093 -7.748086 64.259085 0 0 0
1652 1 -3.389994 -7.269866 64.259085 0 0 0
1653 1 -5.671993 -5.671993 64.259085 0 0 0
1654 1 -6.570754 -4.600891 64.259085 0 0 0
1655 1 -7.748086 -2.076093 64.259085 0 0 0
1656 1 -7.990885 -0.699112 64.259085 0 0 0
1674 1 -1.392903 -7.899546 65.471521 0 0 0
1675 1 -4.010705 -6.946744 65.471521 0 0 0
1676 1 -5.156062 -6.144756 65.471521 0 0 0
1677 1 -6.946744 -4.010705 65.471521 0 0 0
1678 1 -7.537659 -2.743484 65.471521 0 0 0
1697 1 -2.076093 -7.748086 66.683956 0 0 0
1698 1 -3.389994 -7.269866 66.683956 0 0 0
1699 1 -5.671993 -5.671993 66.683956 0 0 0
1700 1 -6.570754 -4.600891 66.683956 0 0 0
1701 1 -7.748086 -2.076093 66.683956 0 0 0
1702 1 -7.990885 -0.699112 66.683956 0 0 0
1720 1 -1.392903 -7.899546 67.89639199999999 0 0 0
1721 1 -4.010705 -6.946744 67.89639199999999 0 0 0
1722 1 -5.156062 -6.144756 67.89639199999999 0 0 0
1723 1 -6.946744 -4.010705 67.89639199999999 0 0 0
1724 1 -7.537659 -2.743484 67.89639199999999 0 0 0
1743 1 -2.076093 -7.748086 69.108828 0 0 0
1744 1 -3.389994 -7.269866 69.108828 0 0 0
1745 1 -5.671993 -5.671993 69.108828 0 0 0
1746 1 -6.570754 -4.600891 69.108828 0 0 0
1747 1 -7.748086 -2.076093 69.108828 0 0 0
1748 1 -7.990885 -0.699112 69.108828 0 0 0
1766 1 -1.392903 -7.899546 70.321263 0 0 0
1767 1 -4.010705 -6.946744 70.321263 0 0 0
1768 1 -5.156062 -6.144756 70.321263 0 0 0
1769 1 -6.946744 -4.010705 70.321263 0 0 0
1770 1 -7.537659 -2.743484 70.321263 0 0 0
2283 2 -1.719138 -0.315585 51.673756 0 0 0
2297 2 -5.088038 -0.828285 51.101355999999996 0 0 0
2299 2 -3.842638 -1.030985 51.679655999999994 0 0 0
2305 2 -3.488538 -2.919085 50.242356 0 0 0
2306 2 -4.740738 -2.718185 49.669556 0 0 0
2307 2 -3.037038 -2.074185 51.251155999999995 0 0 0
2308 2 -5.546338 -1.670785 50.100055999999995 0 0 0
2309 2 -6.257938 -0.919885 49.175956 0 0 0
2310 2 -4.652038 -3.011885 48.316156 0 0 0
2311 2 -5.351938 -2.249685 47.388856 0 0 0
2312 2 -6.162038 -1.200685 47.818056 0 0 0
2313 2 -0.861338 -2.061085 50.241656 0 0 0
2314 2 -1.308238 -2.906685 49.235155999999996 0 0 0
2315 2 -1.719238 -1.642385 51.249356 0 0 0
2316 2 -2.629938 -3.338485 49.236056 0 0 0
2317 2 -3.341738 -3.396185 48.046456 0 0 0
2318 2 -0.708838 -2.530785 48.041855999999996 0 0 0
2319 2 -1.418738 -2.577585 46.847856 0 0 0
2320 2 -2.741738 -3.011185 46.852756 0 0 0
2321 2 -5.180538 -0.584085 45.907956 0 0 0
2322 2 -4.745738 -1.875185 46.197556 0 0 0
2323 2 -3.436238 -2.252685 45.921355999999996 0 0 0
2327 2 -6.063338 -0.168685 46.895156 0 0 0
2337 2 -2.551638 -1.355285 45.339755999999994 0 0 0
2338 2 -1.299438 -1.554285 45.915056 0 0 0
2339 2 -0.479338 -0.468085 46.188756 0 0 0
2340 2 -2.975938 -0.070285 45.047356 0 0 0
2369 3 -0.257938 -0.919885 57.171456 0 0 0
2372 3 -0.162038 -1.200685 55.813556 0 0 0
2387 3 -0.063338 -0.168685 54.890656 0 0 0
2403 2 -1.719138 -0.315585 67.664755 0 0 0
2417 2 -5.088038 -0.828285 67.092355 0 0 0
2419 2 -3.842638 -1.030985 67.670655 0 0 0
2425 2 -3.488538 -2.919085 66.23335499999999 0 0 0
2426 2 -4.740738 -2.718185 65.660555 0 0 0
2427 2 -3.037038 -2.074185 67.242155 0 0 0
2428 2 -5.546338 -1.670785 66.091055 0 0 0
2429 2 -6.257938 -0.919885 65.166955 0 0 0
2430 2 -4.652038 -3.011885 64.307155 0 0 0
2431 2 -5.351938 -2.249685 63.379855 0 0 0
2432 2 -6.162038 -1.200685 63.809055 0 0 0
2433 2 -0.861338 -2.061085 66.232655 0 0 0
2434 2 -1.308238 -2.906685 65.226155 0 0 0
2435 2 -1.719238 -1.642385 67.240355 0 0 0
2436 2 -2.629938 -3.338485 65.227055 0 0 0
2437 2 -3.341738 -3.396185 64.037455 0 0 0
2438 2 -0.708838 -2.530785 64.032855 0 0 0
2439 2 -1.418738 -2.577585 62.838854999999995 0 0 0
2440 2 -2.741738 -3.011185 62.843755 0 0 0
2441 2 -5.180538 -0.584085 61.898955 0 0 0
2442 2 -4.745738 -1.875185 62.188554999999994 0 0 0
2443 2 -3.436238 -2.252685 61.912355 0 0 0
2447 2 -6.063338 -0.168685 62.886154999999995 0 0 0
2457 2 -2.551638 -1.355285 61.330754999999996 0 0 0
2458 2 -1.299438 -1.554285 61.906054999999995 0 0 0
2459 2 -0.479338 -0.468085 62.179755 0 0 0
2460 2 -2.975938 -0.070285 61.038354999999996 0 0 0
3593 1 -2.076093 -7.748086 -1.2124359999999967 0 0 1
3594 1 -3.389994 -7.269866 -1.2124359999999967 0 0 1
3595 1 -5.671993 -5.671993 -1.2124359999999967 0 0 1
3596 1 -6.570754 -4.600891 -1.2124359999999967 0 0 1
3597 1 -7.748086 -2.076093 -1.2124359999999967 0 0 1
3598 1 -7.990885 -0.699112 -1.2124359999999967 0 0 1
13 1 -8.021409 0 0 0 0 0
14 1 -7.899546 1.392903 0 0 0 0
15 1 -6.946744 4.010705 0 0 0 0
16 1 -6.144756 5.156062 0 0 0 0
17 1 -4.010705 6.946744 0 0 0 0
18 1 -2.743484 7.537659 0 0 0 0
37 1 -7.748086 2.076093 1.212436 0 0 0
38 1 -7.269866 3.389994 1.212436 0 0 0
39 1 -5.671993 5.671993 1.212436 0 0 0
40 1 -4.600891 6.570754 1.212436 0 0 0
41 1 -2.076093 7.748086 1.212436 0 0 0
42 1 -0.699112 7.990885 1.212436 0 0 0
59 1 -8.021409 0 2.424871 0 0 0
60 1 -7.899546 1.392903 2.424871 0 0 0
61 1 -6.946744 4.010705 2.424871 0 0 0
62 1 -6.144756 5.156062 2.424871 0 0 0
63 1 -4.010705 6.946744 2.424871 0 0 0
64 1 -2.743484 7.537659 2.424871 0 0 0
83 1 -7.748086 2.076093 3.637307 0 0 0
84 1 -7.269866 3.389994 3.637307 0 0 0
85 1 -5.671993 5.671993 3.637307 0 0 0
86 1 -4.600891 6.570754 3.637307 0 0 0
87 1 -2.076093 7.748086 3.637307 0 0 0
88 1 -0.699112 7.990885 3.637307 0 0 0
105 1 -8.021409 0 4.849742 0 0 0
106 1 -7.899546 1.392903 4.849742 0 0 0
107 1 -6.946744 4.010705 4.849742 0 0 0
108 1 -6.144756 5.156062 4.849742 0 0 0
109 1 -4.010705 6.946744 4.849742 0 0 0
110 1 -2.743484 7.537659 4.849742 0 0 0
129 1 -7.748086 2.076093 6.062178 0 0 0
130 1 -7.269866 3.389994 6.062178 0 0 0
131 1 -5.671993 5.671993 6.062178 0 0 0
132 1 -4.600891 6.570754 6.062178 0 0 0
133 1 -2.076093 7.748086 6.062178 0 0 0
134 1 -0.699112 7.990885 6.062178 0 0 0
151 1 -8.021409 0 7.274613 0 0 0
152 1 -7.899546 1.392903 7.274613 0 0 0
153 1 -6.946744 4.010705 7.274613 0 0 0
154 1 -6.144756 5.156062 7.274613 0 0 0
155 1 -4.010705 6.946744 7.274613 0 0 0
156 1 -2.743484 7.537659 7.274613 0 0 0
175 1 -7.748086 2.076093 8.487049 0 0 0
176 1 -7.269866 3.389994 8.487049 0 0 0
177 1 -5.671993 5.671993 8.487049 0 0 0
178 1 -4.600891 6.570754 8.487049 0 0 0
179 1 -2.076093 7.748086 8.487049 0 0 0
180 1 -0.699112 7.990885 8.487049 0 0 0
197 1 -8.021409 0 9.699485 0 0 0
198 1 -7.899546 1.392903 9.699485 0 0 0
199 1 -6.946744 4.010705 9.699485 0 0 0
200 1 -6.144756 5.156062 9.699485 0 0 0
201 1 -4.010705 6.946744 9.699485 0 0 0
202 1 -2.743484 7.537659 9.699485 0 0 0
221 1 -7.748086 2.076093 10.91192 0 0 0
222 1 -7.269866 3.389994 10.91192 0 0 0
223 1 -5.671993 5.671993 10.91192 0 0 0
224 1 -4.600891 6.570754 10.91192 0 0 0
225 1 -2.076093 7.748086 10.91192 0 0 0
226 1 -0.699112 7.990885 10.91192 0 0 0
243 1 -8.021409 0 12.124356 0 0 0
244 1 -7.899546 1.392903 12.124356 0 0 0
245 1 -6.946744 4.010705 12.124356 0 0 0
246 1 -6.144756 5.156062 12.124356 0 0 0
247 1 -4.010705 6.946744 12.124356 0 0 0
248 1 -2.743484 7.537659 12.124356 0 0 0
267 1 -7.748086 2.076093 13.336791 0 0 0
268 1 -7.269866 3.389994 13.336791 0 0 0
269 1 -5.671993 5.671993 13.336791 0 0 0
270 1 -4.600891 6.570754 13.336791 0 0 0
271 1 -2.076093 7.748086 13.336791 0 0 0
272 1 -0.699112 7.990885 13.336791 0 0 0
289 1 -8.021409 0 14.549227 0 0 0
290 1 -7.899546 1.392903 14.549227 0 0 0
291 1 -6.946744 4.010705 14.549227 0 0 0
292 1 -6.144756 5.156062 14.549227 0 0 0
293 1 -4.010705 6.946744 14.549227 0 0 0
294 1 -2.743484 7.537659 14.549227 0 0 0
313 1 -7.748086 2.076093 15.761662 0 0 0
314 1 -7.269866 3.389994 15.761662 0 0 0
315 1 -5.671993 5.671993 15.761662 0 0 0
316 1 -4.600891 6.570754 15.761662 0 0 0
317 1 -2.076093 7.748086 15.761662 0 0 0
318 1 -0.699112 7.990885 15.761662 0 0 0
337 1 -6.946744 4.010705 16.974098 0 0 0
338 1 -6.144756 5.156062 16.974098 0 0 0
339 1 -4.010705 6.946744 16.974098 0 0 0
340 1 -2.743484 7.537659 16.974098 0 0 0
359 1 -8.021409 0 16.974098 0 0 0
360 1 -7.899546 1.392903 16.974098 0 0 0
361 1 -5.671993 5.671993 18.186533 0 0 0
362 1 -4.600891 6.570754 18.186533 0 0 0
363 1 -2.076093 7.748086 18.186533 0 0 0
364 1 -0.699112 7.990885 18.186533 0 0 0
383 1 -7.748086 2.076093 18.186533 0 0 0
384 1 -7.269866 3.389994 18.186533 0 0 0
385 1 -4.010705 6.946744 19.398969 0 0 0
386 1 -2.743484 7.537659 19.398969 0 0 0
405 1 -8.021409 0 19.398969 0 0 0
406 1 -7.899546 1.392903 19.398969 0 0 0
407 1 -6.946744 4.010705 19.398969 0 0 0
408 1 -6.144756 5.156062 19.398969 0 0 0
409 1 -2.076093 7.748086 20.611405 0 0 0
410 1 -0.699112 7.990885 20.611405 0 0 0
429 1 -7.748086 2.076093 20.611405 0 0 0
430 1 -7.269866 3.389994 20.611405 0 0 0
431 1 -5.671993 5.671993 20.611405 0 0 0
432 1 -4.600891 6.570754 20.611405 0 0 0
451 1 -8.021409 0 21.82384 0 0 0
452 1 -7.899546 1.392903 21.82384 0 0 0
453 1 -6.946744 4.010705 21.82384 0 0 0
454 1 -6.144756 5.156062 21.82384 0 0 0
455 1 -4.010705 6.946744 21.82384 0 0 0
456 1 -2.743484 7.537659 21.82384 0 0 0
475 1 -7.748086 2.076093 23.036276 0 0 0
476 1 -7.269866 3.389994 23.036276 0 0 0
477 1 -5.671993 5.671993 23.036276 0 0 0
478 1 -4.600891 6.570754 23.036276 0 0 0
479 1 -2.076093 7.748086 23.036276 0 0 0
480 1 -0.699112 7.990885 23.036276 0 0 0
497 1 -8.021409 0 24.248711 0 0 0
498 1 -7.899546 1.392903 24.248711 0 0 0
499 1 -6.946744 4.010705 24.248711 0 0 0
500 1 -6.144756 5.156062 24.248711 0 0 0
501 1 -4.010705 6.946744 24.248711 0 0 0
502 1 -2.743484 7.537659 24.248711 0 0 0
521 1 -7.748086 2.076093 25.461147 0 0 0
522 1 -7.269866 3.389994 25.461147 0 0 0
523 1 -5.671993 5.671993 25.461147 0 0 0
524 1 -4.600891 6.570754 25.461147 0 0 0
525 1 -2.076093 7.748086 25.461147 0 0 0
526 1 -0.699112 7.990885 25.461147 0 0 0
543 1 -8.021409 0 26.673582 0 0 0
544 1 -7.899546 1.392903 26.673582 0 0 0
545 1 -6.946744 4.010705 26.673582 0 0 0
546 1 -6.144756 5.156062 26.673582 0 0 0
547 1 -4.010705 6.946744 26.673582 0 0 0
548 1 -2.743484 7.537659 26.673582 0 0 0
567 1 -7.748086 2.076093 27.886018 0 0 0
568 1 -7.269866 3.389994 27.886018 0 0 0
569 1 -5.671993 5.671993 27.886018 0 0 0
570 1 -4.600891 6.570754 27.886018 0 0 0
571 1 -2.076093 7.748086 27.886018 0 0 0
572 1 -0.699112 7.990885 27.886018 0 0 0
589 1 -8.021409 0 29.098454 0 0 0
590 1 -7.899546 1.392903 29.098454 0 0 0
591 1 -6.946744 4.010705 29.098454 0 0 0
592 1 -6.144756 5.156062 29.098454 0 0 0
593 1 -4.010705 6.946744 29.098454 0 0 0
594 1 -2.743484 7.537659 29.098454 0 0 0
613 1 -7.748086 2.076093 30.310889 0 0 0
614 1 -7.269866 3.389994 30.310889 0 0 0
615 1 -5.671993 5.671993 30.310889 0 0 0
616 1 -4.600891 6.570754 30.310889 0 0 0
617 1 -2.076093 7.748086 30.310889 0 0 0
618 1 -0.699112 7.990885 30.310889 0 0 0
635 1 -8.021409 0 31.523325 0 0 0
636 1 -7.899546 1.392903 31.523325 0 0 0
637 1 -6.946744 4.010705 31.523325 0 0 0
638 1 -6.144756 5.156062 31.523325 0 0 0
639 1 -4.010705 6.946744 31.523325 0 0 0
640 1 -2.743484 7.537659 31.523325 0 0 0
659 1 -7.748086 2.076093 32.73576 0 0 0
660 1 -7.269866 3.389994 32.73576 0 0 0
661 1 -5.671993 5.671993 32.73576 0 0 0
662 1 -4.600891 6.570754 32.73576 0 0 0
663 1 -2.076093 7.748086 32.73576 0 0 0
664 1 -0.699112 7.990885 32.73576 0 0 0
681 1 -8.021409 0 33.948196 0 0 0
682 1 -7.899546 1.392903 33.948196 0 0 0
683 1 -6.946744 4.010705 33.948196 0 0 0
684 1 -6.144756 5.156062 33.948196 0 0 0
685 1 -4.010705 6.946744 33.948196 0 0 0
686 1 -2.743484 7.537659 33.948196 0 0 0
705 1 -7.748086 2.076093 35.160631 0 0 0
706 1 -7.269866 3.389994 35.160631 0 0 0
707 1 -5.671993 5.671993 35.160631 0 0 0
708 1 -4.600891 6.570754 35.160631 0 0 0
709 1 -2.076093 7.748086 35.160631 0 0 0
710 1 -0.699112 7.990885 35.160631 0 0 0
727 1 -8.021409 0 36.373067 0 0 0
728 1 -7.899546 1.392903 36.373067 0 0 0
729 1 -6.946744 4.010705 36.373067 0 0 0
730 1 -6.144756 5.156062 36.373067 0 0 0
731 1 -4.010705 6.946744 36.373067 0 0 0
732 1 -2.743484 7.537659 36.373067 0 0 0
751 1 -7.748086 2.076093 37.585503 0 0 0
752 1 -7.269866 3.389994 37.585503 0 0 0
753 1 -5.671993 5.671993 37.585503 0 0 0
754 1 -4.600891 6.570754 37.585503 0 0 0
755 1 -2.076093 7.748086 37.585503 0 0 0
756 1 -0.699112 7.990885 37.585503 0 0 0
773 1 -8.021409 0 38.797938 0 0 0
774 1 -7.899546 1.392903 38.797938 0 0 0
775 1 -6.946744 4.010705 38.797938 0 0 0
776 1 -6.144756 5.156062 38.797938 0 0 0
777 1 -4.010705 6.946744 38.797938 0 0 0
778 1 -2.743484 7.537659 38.797938 0 0 0
797 1 -7.748086 2.076093 40.010374 0 0 0
798 1 -7.269866 3.389994 40.010374 0 0 0
799 1 -5.671993 5.671993 40.010374 0 0 0
800 1 -4.600891 6.570754 40.010374 0 0 0
801 1 -2.076093 7.748086 40.010374 0 0 0
802 1 -0.699112 7.990885 40.010374 0 0 0
819 1 -8.021409 0 41.222809 0 0 0
820 1 -7.899546 1.392903 41.222809 0 0 0
821 1 -6.946744 4.010705 41.222809 0 0 0
822 1 -6.144756 5.156062 41.222809 0 0 0
823 1 -4.010705 6.946744 41.222809 0 0 0
824 1 -2.743484 7.537659 41.222809 0 0 0
843 1 -7.748086 2.076093 42.435245 0 0 0
844 1 -7.269866 3.389994 42.435245 0 0 0
845 1 -5.671993 5.671993 42.435245 0 0 0
846 1 -4.600891 6.570754 42.435245 0 0 0
847 1 -2.076093 7.748086 42.435245 0 0 0
848 1 -0.699112 7.990885 42.435245 0 0 0
865 1 -8.021409 0 43.64768 0 0 0
866 1 -7.899546 1.392903 43.64768 0 0 0
867 1 -6.946744 4.010705 43.64768 0 0 0
868 1 -6.144756 5.156062 43.64768 0 0 0
869 1 -4.010705 6.946744 43.64768 0 0 0
870 1 -2.743484 7.537659 43.64768 0 0 0
889 1 -7.748086 2.076093 44.860116 0 0 0
890 1 -7.269866 3.389994 44.860116 0 0 0
891 1 -5.671993 5.671993 44.860116 0 0 0
892 1 -4.600891 6.570754 44.860116 0 0 0
893 1 -2.076093 7.748086 44.860116 0 0 0
894 1 -0.699112 7.990885 44.860116 0 0 0
913 1 -6.946744 4.010705 46.072551 0 0 0
914 1 -6.144756 5.156062 46.072551 0 0 0
915 1 -4.010705 6.946744 46.072551 0 0 0
916 1 -2.743484 7.537659 46.072551 0 0 0
935 1 -8.021409 0 46.072551 0 0 0
936 1 -7.899546 1.392903 46.072551 0 0 0
937 1 -5.671993 5.671993 47.284987 0 0 0
938 1 -4.600891 6.570754 47.284987 0 0 0
939 1 -2.076093 7.748086 47.284987 0 0 0
940 1 -0.699112 7.990885 47.284987 0 0 0