LAMMPS (2 Aug 2023 - Update 3)
OMP_NUM_THREADS environment is not set. Defaulting to 1 thread. (src/comm.cpp:98)
  using 1 OpenMP thread(s) per MPI task
Reading data file ...
  orthogonal box = (-100 -100 -2.3312515) to (100 100 46.166171)
  4 by 4 by 1 MPI processor grid
  reading atoms ...
  1320 atoms
  read_data CPU = 0.007 seconds
Replication is creating a 1x1x13 = 13 times larger system...
  orthogonal box = (-100 -100 -2.3312515) to (100 100 628.13525)
  2 by 2 by 4 MPI processor grid
  17160 atoms
  replicate CPU = 0.002 seconds
System init for write_data ...
WARNING: Communication cutoff is 0.0. No ghost atoms will be generated. Atoms may get lost. (src/comm_brick.cpp:210)
Reading airebo potential file CH.airebo with DATE: 2011-10-25
Reading airebo potential file CH.airebo with DATE: 2011-10-25
Reading airebo potential file CH.airebo with DATE: 2011-10-25
Neighbor list info ...
  update: every = 1 steps, delay = 0 steps, check = yes
  max neighbors/atom: 2000, page size: 100000
  master list distance cutoff = 13.2
  ghost atom cutoff = 13.2
  binsize = 6.6, bins = 31 31 96
  6 neighbor lists, perpetual/occasional/extra = 6 0 0
  (1) pair airebo, perpetual, skip from (5)
      attributes: full, newton on, ghost
      pair build: skip/ghost
      stencil: none
      bin: none
  (2) pair airebo, perpetual, skip from (5)
      attributes: full, newton on, ghost
      pair build: skip/ghost
      stencil: none
      bin: none
  (3) pair airebo, perpetual, skip from (5)
      attributes: full, newton on, ghost
      pair build: skip/ghost
      stencil: none
      bin: none
  (4) pair lj/cut, perpetual, skip from (6)
      attributes: half, newton on, cut 13
      pair build: skip
      stencil: none
      bin: none
  (5) neighbor class addition, perpetual
      attributes: full, newton on, ghost
      pair build: full/bin/ghost
      stencil: full/ghost/bin/3d
      bin: standard
  (6) neighbor class addition, perpetual
      attributes: half, newton on, cut 13
      pair build: half/bin/atomonly/newton
      stencil: half/bin/3d
      bin: standard
Setting up sd style minimization ...
  Unit style    : metal
  Current step  : 0
Per MPI rank memory allocation (min/avg/max) = 13.4 | 13.98 | 14.17 Mbytes
   Step          Temp          E_pair         E_mol          TotEng         Press     
         0   0             -104880.03      0             -104880.03      5481.8219    
        30   0             -124065.93      0             -124065.93      34.778352    
Loop time of 1.02368 on 16 procs for 30 steps with 17160 atoms

98.4% CPU use with 16 MPI tasks x 1 OpenMP threads

Minimization stats:
  Stopping criterion = energy tolerance
  Energy initial, next-to-last, final = 
     -104880.028604614  -124058.012932625  -124065.930772256
  Force two-norm initial, final = 7092.3959 35.667755
  Force max component initial, final = 534.82797 1.9411106
  Final line search alpha, max atom move = 0.051917894 0.10077838
  Iterations, force evaluations = 30 54

MPI task timing breakdown:
Section |  min time  |  avg time  |  max time  |%varavg| %total
---------------------------------------------------------------
Pair    | 0.93156    | 0.96778    | 1.0064     |   2.5 | 94.54
Neigh   | 0          | 0          | 0          |   0.0 |  0.00
Comm    | 0.011907   | 0.049236   | 0.08456    |  11.1 |  4.81
Output  | 0          | 0          | 0          |   0.0 |  0.00
Modify  | 0          | 0          | 0          |   0.0 |  0.00
Other   |            | 0.006662   |            |       |  0.65

Nlocal:         1072.5 ave        1142 max         998 min
Histogram: 4 0 0 0 2 6 0 0 0 4
Nghost:        3919.75 ave        3998 max        3846 min
Histogram: 3 1 0 0 5 3 0 0 2 2
Neighs:              0 ave           0 max           0 min
Histogram: 16 0 0 0 0 0 0 0 0 0

Total # of neighbors = 0
Ave neighs/atom = 0
Neighbor list builds = 0
Dangerous builds = 0
Setting up Verlet run ...
  Unit style    : metal
  Current step  : 30
  Time step     : 0.001
Per MPI rank memory allocation (min/avg/max) = 14.03 | 14.6 | 14.79 Mbytes
   Step          Temp          E_pair         E_mol          TotEng         Press          Volume    
        30   300           -124065.93      0             -123400.54      62.960556      25218660     
Loop time of 2.7264e-05 on 16 procs for 0 steps with 17160 atoms

98.6% CPU use with 16 MPI tasks x 1 OpenMP threads

MPI task timing breakdown:
Section |  min time  |  avg time  |  max time  |%varavg| %total
---------------------------------------------------------------
Pair    | 0          | 0          | 0          |   0.0 |  0.00
Neigh   | 0          | 0          | 0          |   0.0 |  0.00
Comm    | 0          | 0          | 0          |   0.0 |  0.00
Output  | 0          | 0          | 0          |   0.0 |  0.00
Modify  | 0          | 0          | 0          |   0.0 |  0.00
Other   |            | 2.726e-05  |            |       |100.00

Nlocal:         1072.5 ave        1081 max        1059 min
Histogram: 1 0 1 2 2 1 2 1 4 2
Nghost:           3919 ave        3939 max        3908 min
Histogram: 3 4 1 2 2 1 0 2 0 1
Neighs:              0 ave           0 max           0 min
Histogram: 16 0 0 0 0 0 0 0 0 0

Total # of neighbors = 0
Ave neighs/atom = 0
Neighbor list builds = 0
Dangerous builds = 0
WARNING: Dump 2 includes no atom IDs and is not sorted by ID. This may complicate post-processing tasks or visualization (src/dump.cpp:221)
Setting up Verlet run ...
  Unit style    : metal
  Current step  : 0
  Time step     : 0.001
Per MPI rank memory allocation (min/avg/max) = 15.53 | 16.1 | 16.29 Mbytes
   Step         PotEng         KinEng         TotEng           Lx             Ly             Lz      
         0  -124065.93      665.39245     -123400.54      200            200            630.4665     
       100  -124061.16      697.98866     -123363.17      200.02829      199.93621      630.78173    
       200  -123987.05      591.719       -123395.33      200.03387      199.80773      631.09697    
       300  -123838.87      483.47326     -123355.4       200.14478      199.74153      631.4122     
       400  -123888.84      584.81181     -123304.03      200.16497      199.65736      631.72743    
       500  -123960.62      670.5596      -123290.06      200.23159      199.68082      632.04267    
       600  -123894.3       582.51859     -123311.78      200.20777      199.71862      632.3579     
       700  -123971.62      701.19663     -123270.43      200.18068      199.78724      632.67313    
       800  -123992.85      699.3339      -123293.51      200.01506      199.80529      632.98836    
       900  -123962.44      639.38561     -123323.05      199.97005      199.87011      633.3036     
      1000  -123924.01      629.50604     -123294.51      199.9405       199.91722      633.61883    
      1100  -123877.29      626.7705      -123250.52      199.89537      199.92929      633.93406    
      1200  -123893.04      682.46877     -123210.58      199.92222      199.96435      634.2493     
      1300  -123941.53      721.64704     -123219.88      199.94493      199.92841      634.56453    
      1400  -123950.28      686.17038     -123264.11      199.95907      199.85296      634.87976    
      1500  -123965.95      669.13651     -123296.82      199.996        199.77668      635.195      
      1600  -123953.58      639.18053     -123314.4       200.06576      199.74322      635.51023    
      1700  -123911.88      627.17142     -123284.7       200.05121      199.73848      635.82546    
      1800  -123931.46      692.14852     -123239.31      200.00786      199.77626      636.1407     
      1900  -123946.93      697.3649      -123249.56      199.96838      199.83421      636.45593    
      2000  -123921.97      645.0818      -123276.88      199.89386      199.85853      636.77116    
      2100  -123925.88      654.04322     -123271.84      199.88049      199.88896      637.0864     
      2200  -123898.15      652.7386      -123245.41      199.87053      199.88564      637.40163    
      2300  -123881.49      669.74886     -123211.74      199.87474      199.86349      637.71686    
      2400  -123886.2       693.21012     -123192.99      199.90317      199.84307      638.0321     
      2500  -123900.76      684.21665     -123216.54      199.92557      199.80331      638.34733    
      2600  -123900.73      655.63865     -123245.1       199.95412      199.76488      638.66256    
      2700  -123906.72      648.52197     -123258.2       199.96873      199.73315      638.9778     
      2800  -123884.63      640.80688     -123243.82      199.97785      199.72667      639.29303    
      2900  -123884.41      674.93382     -123209.48      199.94833      199.73887      639.60826    
      3000  -123875.74      677.12033     -123198.62      199.91125      199.77571      639.9235     
      3100  -123879.03      665.4841      -123213.55      199.87155      199.80795      640.23873    
      3200  -123879.22      659.83883     -123219.38      199.84561      199.82478      640.55396    
      3300  -123856.8       652.71503     -123204.09      199.84504      199.82787      640.8692     
      3400  -123836         659.65015     -123176.35      199.84418      199.80297      641.18443    
      3500  -123834.61      679.41556     -123155.19      199.86968      199.78345      641.49966    
      3600  -123846.31      684.46036     -123161.85      199.87906      199.75197      641.8149     
      3700  -123842.02      658.78089     -123183.24      199.8981       199.72984      642.13013    
      3800  -123844.62      657.50668     -123187.12      199.90877      199.71474      642.44536    
      3900  -123832.96      658.73269     -123174.23      199.90588      199.70909      642.7606     
      4000  -123827.15      675.34743     -123151.81      199.89078      199.7158       643.07583    
      4100  -123819.8       676.84392     -123142.95      199.86298      199.72824      643.39106    
      4200  -123811.62      662.26121     -123149.36      199.84213      199.7477       643.7063     
      4300  -123808.79      660.26012     -123148.53      199.82214      199.75526      644.02153    
      4400  -123793.73      654.91419     -123138.81      199.82332      199.75942      644.33676    
      4500  -123781.66      666.04317     -123115.62      199.82287      199.74431      644.652      
      4600  -123773.36      675.12449     -123098.24      199.83253      199.72245      644.96723    
      4700  -123765.07      666.88704     -123098.19      199.84679      199.70024      645.28246    
      4800  -123776.36      670.77123     -123105.59      199.8504       199.67825      645.59769    
      4900  -123770.6       659.8557      -123110.75      199.8587       199.67017      645.91293    
      5000  -123755.25      654.69462     -123100.56      199.85371      199.66734      646.22816    
      5100  -123741.12      664.8136      -123076.3       199.84132      199.67421      646.54339    
      5200  -123740.62      678.77999     -123061.84      199.82173      199.67908      646.85863    
      5300  -123734.39      667.20773     -123067.18      199.80558      199.68589      647.17386    
      5400  -123728.66      659.27838     -123069.38      199.79181      199.68757      647.48909    
      5500  -123718.25      659.09772     -123059.15      199.78793      199.68448      647.80433    
      5600  -123706.19      669.40671     -123036.79      199.79175      199.67731      648.11956    
      5700  -123692.93      672.99573     -123019.93      199.79326      199.66171      648.43479    
      5800  -123692.89      672.71205     -123020.18      199.79784      199.64435      648.75003    
      5900  -123690.18      665.72907     -123024.45      199.79684      199.63052      649.06526    
      6000  -123678.49      659.29922     -123019.19      199.79197      199.62437      649.38049    
      6100  -123665.8       664.52921     -123001.27      199.78398      199.62801      649.69573    
      6200  -123661.22      675.48829     -122985.74      199.7666       199.63456      650.01096    
      6300  -123644.3       665.26805     -122979.04      199.75291      199.64091      650.32619    
      6400  -123640.96      663.91032     -122977.05      199.73788      199.63946      650.64143    
      6500  -123631.23      660.12045     -122971.1       199.73109      199.6342       650.95666    
      6600  -123624.29      669.33889     -122954.95      199.72725      199.62485      651.27189    
      6700  -123608.8       668.43544     -122940.37      199.72946      199.61449      651.58713    
      6800  -123599.55      669.36939     -122930.18      199.73016      199.6029       651.90236    
      6900  -123589.03      661.8612      -122927.17      199.72869      199.59104      652.21759    
      7000  -123581.98      658.2741      -122923.7       199.72489      199.58283      652.53283    
      7100  -123570.35      661.74582     -122908.61      199.71309      199.57635      652.84806    
      7200  -123557.5       664.05065     -122893.45      199.70479      199.57795      653.16329    
      7300  -123549.42      669.25241     -122880.17      199.69001      199.57786      653.47853    
      7400  -123539.86      669.09589     -122870.76      199.67825      199.57749      653.79376    
      7500  -123528.32      662.6615      -122865.66      199.67291      199.57415      654.10899    
      7600  -123521.77      662.27358     -122859.5       199.66689      199.56212      654.42423    
      7700  -123501.38      655.07721     -122846.3       199.66973      199.54988      654.73946    
      7800  -123491.26      666.74274     -122824.52      199.66592      199.53237      655.05469    
      7900  -123483.63      671.01136     -122812.62      199.66666      199.51991      655.36993    
      8000  -123476.73      667.68307     -122809.05      199.66348      199.50952      655.68516    
      8100  -123463.51      661.94103     -122801.57      199.65749      199.50227      656.00039    
      8200  -123447.67      661.51874     -122786.16      199.65112      199.49755      656.31563    
      8300  -123434.52      666.99473     -122767.53      199.63692      199.4917       656.63086    
      8400  -123417.22      660.95133     -122756.27      199.62581      199.48986      656.94609    
      8500  -123407.15      659.84512     -122747.31      199.61066      199.48339      657.26133    
      8600  -123407.73      670.09106     -122737.64      199.6059       199.48002      657.57656    
      8700  -123393.9       664.7113      -122729.19      199.60172      199.46952      657.89179    
      8800  -123381.25      659.99045     -122721.26      199.60007      199.45582      658.20702    
      8900  -123367.31      660.23432     -122707.08      199.59855      199.44052      658.52226    
      9000  -123348.31      662.72467     -122685.59      199.59142      199.42347      658.83749    
      9100  -123335.48      668.6632      -122666.82      199.58901      199.41344      659.15272    
      9200  -123326.37      668.10318     -122658.26      199.58272      199.40275      659.46796    
      9300  -123314.09      661.68994     -122652.4       199.57994      199.39602      659.78319    
      9400  -123296.84      657.8175      -122639.02      199.571        199.38598      660.09842    
      9500  -123289.61      666.51814     -122623.09      199.55828      199.37809      660.41366    
      9600  -123272.36      667.1327      -122605.23      199.54448      199.37327      660.72889    
      9700  -123256.75      672.06166     -122584.69      199.52901      199.36887      661.04412    
      9800  -123244.91      666.34354     -122578.57      199.5211       199.36682      661.35936    
      9900  -123236.08      664.09192     -122571.99      199.5109       199.35806      661.67459    
     10000  -123220.87      662.77717     -122558.09      199.50671      199.34737      661.98982    
     10100  -123206.88      666.5644      -122540.31      199.49925      199.3308       662.30506    
     10200  -123188.55      667.37806     -122521.17      199.49366      199.31586      662.62029    
     10300  -123177.04      676.05782     -122500.98      199.48649      199.30324      662.93552    
     10400  -123158.76      672.34635     -122486.42      199.47826      199.2948       663.25076    
     10500  -123152.33      668.92525     -122483.4       199.46925      199.28926      663.56599    
     10600  -123138.97      666.3979      -122472.57      199.45611      199.28301      663.88122    
     10700  -123117.29      659.25363     -122458.04      199.4446       199.27696      664.19646    
     10800  -123105.44      667.97131     -122437.47      199.42789      199.26655      664.51169    
     10900  -123081.25      665.58782     -122415.66      199.41744      199.25825      664.82692    
     11000  -123074.42      669.61437     -122404.81      199.40767      199.24758      665.14216    
     11100  -123059.9       658.94295     -122400.96      199.40027      199.23734      665.45739    
     11200  -123046.47      661.61032     -122384.86      199.39481      199.22599      665.77262    
     11300  -123025.32      663.85397     -122361.46      199.38571      199.21281      666.08786    
     11400  -123011.72      668.02067     -122343.69      199.37503      199.20098      666.40309    
     11500  -123002.1       668.2381      -122333.87      199.35896      199.1903       666.71832    
     11600  -122987.08      661.67419     -122325.41      199.34495      199.18356      667.03356    
     11700  -122973.1       664.52786     -122308.57      199.33091      199.1778       667.34879    
     11800  -122959.5       670.28601     -122289.21      199.31693      199.17209      667.66402    
     11900  -122938.14      667.48589     -122270.66      199.30585      199.16513      667.97926    
     12000  -122918.52      665.9476      -122252.57      199.29233      199.1539       668.29449    
     12100  -122898.43      668.38215     -122230.05      199.27982      199.14127      668.60972    
     12200  -122882.31      670.1571      -122212.16      199.26733      199.12667      668.92496    
     12300  -122870         664.82583     -122205.17      199.25864      199.1136       669.24019    
     12400  -122854.56      661.039       -122193.52      199.2497       199.10093      669.55542    
     12500  -122841.01      664.90435     -122176.1       199.23968      199.09166      669.87066    
     12600  -122824.03      669.69115     -122154.34      199.22428      199.08196      670.18589    
     12700  -122807.3       680.11653     -122127.19      199.20655      199.07223      670.50112    
     12800  -122782.53      669.49477     -122113.03      199.1892       199.06332      670.81635    
     12900  -122774.87      671.61153     -122103.26      199.17274      199.05346      671.13159    
     13000  -122750.15      662.36588     -122087.78      199.16019      199.04478      671.44682    
     13100  -122738.44      667.22794     -122071.22      199.14681      199.03353      671.76205    
     13200  -122718.7       662.60226     -122056.1       199.13449      199.02174      672.07729    
     13300  -122707.18      667.24956     -122039.93      199.11973      199.00856      672.39252    
     13400  -122687.56      666.01377     -122021.55      199.1033       198.99541      672.70775    
     13500  -122659.27      661.17925     -121998.09      199.08897      198.98444      673.02299    
     13600  -122644.5       672.75838     -121971.74      199.07333      198.97365      673.33822    
     13700  -122617.98      661.88161     -121956.09      199.05864      198.96444      673.65345    
     13800  -122613.1       668.61818     -121944.49      199.04171      198.95297      673.96869    
     13900  -122595.71      667.01918     -121928.69      199.02533      198.94076      674.28392    
     14000  -122580.23      669.74021     -121910.49      199.01068      198.9272       674.59915    
     14100  -122557.58      665.41708     -121892.16      198.99837      198.91289      674.91439    
     14200  -122539.63      665.04875     -121874.58      198.9862       198.89718      675.22962    
     14300  -122517.11      667.80017     -121849.31      198.97301      198.88085      675.54485    
     14400  -122496.97      674.37356     -121822.6       198.95974      198.86532      675.86009    
     14500  -122475.21      665.07706     -121810.14      198.94421      198.84961      676.17532    
     14600  -122464         665.86061     -121798.14      198.93122      198.83669      676.49055    
     14700  -122444.03      662.30196     -121781.73      198.91691      198.82342      676.80579    
     14800  -122426.17      665.35365     -121760.81      198.89968      198.80906      677.12102    
     14900  -122402.57      671.10988     -121731.46      198.88365      198.79527      677.43625    
     15000  -122380.15      671.94629     -121708.2       198.8655       198.77971      677.75149    
     15100  -122361.22      667.72331     -121693.5       198.84976      198.76697      678.06672    
     15200  -122342.24      665.64592     -121676.59      198.83239      198.75314      678.38195    
     15300  -122327.17      666.91548     -121660.25      198.81745      198.74016      678.69719    
     15400  -122308.59      664.88734     -121643.71      198.80032      198.72434      679.01242    
     15500  -122282.57      658.73167     -121623.84      198.78398      198.70711      679.32765    
     15600  -122265.5       667.31222     -121598.19      198.76833      198.69021      679.64289    
     15700  -122244.58      672.48347     -121572.1       198.7519       198.6725       679.95812    
     15800  -122221.26      667.22521     -121554.03      198.73773      198.65847      680.27335    
     15900  -122207.74      665.81194     -121541.92      198.71962      198.64248      680.58859    
     16000  -122185.18      660.85492     -121524.33      198.70314      198.62895      680.90382    
     16100  -122161.27      660.17289     -121501.1       198.68161      198.61245      681.21905    
     16200  -122139.98      668.19604     -121471.79      198.66291      198.59811      681.53429    
     16300  -122117.44      670.0253      -121447.41      198.64474      198.58445      681.84952    
     16400  -122094.69      665.10727     -121429.58      198.62398      198.56889      682.16475    
     16500  -122080.93      666.33955     -121414.59      198.608        198.55605      682.47999    
     16600  -122059.13      662.20243     -121396.92      198.58617      198.53781      682.79522    
     16700  -122037.36      663.21213     -121374.15      198.56998      198.52145      683.11045    
     16800  -122011.05      667.39583     -121343.65      198.55408      198.50168      683.42568    
     16900  -121992.26      673.63793     -121318.62      198.53883      198.48079      683.74092    
     17000  -121975.53      673.00305     -121302.53      198.52566      198.46073      684.05615    
     17100  -121958.41      671.16795     -121287.24      198.50831      198.43972      684.37138    
     17200  -121929.61      661.74206     -121267.87      198.49139      198.42227      684.68662    
     17300  -121905.37      661.23347     -121244.14      198.47127      198.40414      685.00185    
     17400  -121881.67      667.14304     -121214.52      198.45306      198.38875      685.31708    
     17500  -121862.44      671.86447     -121190.57      198.43381      198.37203      685.63232    
     17600  -121842.14      665.42964     -121176.71      198.41246      198.35523      685.94755    
     17700  -121821.15      661.96988     -121159.18      198.39371      198.33849      686.26278    
     17800  -121795.52      659.07147     -121136.45      198.37316      198.31914      686.57802    
     17900  -121772.77      661.17004     -121111.6       198.35506      198.30047      686.89325    
     18000  -121750.16      667.32691     -121082.83      198.33896      198.28083      687.20848    
     18100  -121727.83      670.92914     -121056.9       198.32133      198.2591       687.52372    
     18200  -121708.38      664.73452     -121043.64      198.30629      198.23846      687.83895    
     18300  -121691.18      663.78033     -121027.4       198.28881      198.21807      688.15418    
     18400  -121664.76      663.52629     -121001.23      198.26835      198.19824      688.46942    
     18500  -121638.78      666.69501     -120972.09      198.24918      198.18144      688.78465    
     18600  -121609.89      664.32858     -120945.56      198.22507      198.16378      689.09988    
     18700  -121588.49      666.45664     -120922.03      198.20457      198.14855      689.41512    
     18800  -121563.77      662.81289     -120900.96      198.18208      198.13234      689.73035    
     18900  -121540.18      660.63561     -120879.55      198.16068      198.11491      690.04558    
     19000  -121522.98      666.62138     -120856.36      198.14134      198.09823      690.36082    
     19100  -121498.33      667.6344      -120830.7       198.11841      198.07754      690.67605    
     19200  -121471.44      667.86679     -120803.57      198.10109      198.05854      690.99128    
     19300  -121443.98      669.30739     -120774.68      198.08002      198.03665      691.30652    
     19400  -121426.53      671.85498     -120754.67      198.06219      198.01719      691.62175    
     19500  -121402.55      662.06115     -120740.49      198.04267      197.99887      691.93698    
     19600  -121377.92      662.20075     -120715.72      198.01981      197.98034      692.25222    
     19700  -121349.24      661.93113     -120687.3       197.9995       197.96475      692.56745    
     19800  -121326.47      667.5719      -120658.9       197.97277      197.94528      692.88268    
     19900  -121302.4       669.70422     -120632.7       197.95292      197.9293       693.19792    
     20000  -121279.51      664.91259     -120614.6       197.93111      197.91066      693.51315    
     20100  -121261.59      663.79777     -120597.79      197.90962      197.8919       693.82838    
     20200  -121236.64      663.47541     -120573.16      197.89018      197.87477      694.14362    
     20300  -121210.01      668.79962     -120541.21      197.86626      197.85543      694.45885    
     20400  -121182.81      671.81059     -120511         197.84502      197.83798      694.77408    
     20500  -121158.45      670.79136     -120487.66      197.8221       197.8183       695.08932    
     20600  -121128.91      663.06976     -120465.84      197.80221      197.79985      695.40455    
     20700  -121115.79      669.97513     -120445.82      197.7824       197.78001      695.71978    
     20800  -121090.91      665.88424     -120425.02      197.76162      197.76101      696.03501    
     20900  -121061.09      666.54883     -120394.54      197.74055      197.74312      696.35025    
     21000  -121030.36      670.83194     -120359.53      197.71689      197.72563      696.66548    
     21100  -121002.89      667.68574     -120335.21      197.69248      197.70743      696.98071    
     21200  -120984.2       668.88629     -120315.32      197.67173      197.69091      697.29595    
     21300  -120955.73      660.43915     -120295.29      197.64907      197.67222      697.61118    
     21400  -120930.53      662.13967     -120268.39      197.62901      197.65423      697.92641    
     21500  -120905.52      667.58787     -120237.93      197.60862      197.63689      698.24165    
     21600  -120884.5       672.82171     -120211.68      197.58428      197.6176       698.55688    
     21700  -120859.58      670.82583     -120188.75      197.56422      197.60116      698.87211    
     21800  -120829.23      665.50377     -120163.73      197.54105      197.58161      699.18735    
     21900  -120797.52      664.73137     -120132.79      197.52126      197.56388      699.50258    
     22000  -120768.26      669.1425      -120099.12      197.50016      197.54426      699.81781    
     22100  -120749.61      674.76332     -120074.85      197.47926      197.525        700.13305    
     22200  -120721.19      662.0401      -120059.15      197.45968      197.50659      700.44828    
     22300  -120698.82      662.02415     -120036.8       197.43757      197.4863       700.76351    
     22400  -120674.48      666.40319     -120008.07      197.41994      197.46867      701.07875    
     22500  -120644.52      667.73669     -119976.79      197.39883      197.44874      701.39398    
     22600  -120614.57      664.29138     -119950.28      197.38024      197.43001      701.70921    
     22700  -120588.55      661.4162      -119927.13      197.36046      197.41095      702.02445    
     22800  -120567.84      665.3616      -119902.48      197.33783      197.39121      702.33968    
     22900  -120533.79      658.35949     -119875.43      197.31784      197.37427      702.65491    
     23000  -120507.88      665.09417     -119842.79      197.29463      197.35552      702.97015    
     23100  -120482.37      671.26936     -119811.1       197.27561      197.34016      703.28538    
     23200  -120450.6       667.38444     -119783.22      197.25431      197.32307      703.60061    
     23300  -120428.96      667.25148     -119761.71      197.23325      197.30574      703.91585    
     23400  -120412.37      669.3703      -119743         197.21327      197.28776      704.23108    
     23500  -120377.21      659.67626     -119717.53      197.19178      197.2681       704.54631    
     23600  -120348.01      665.11028     -119682.9       197.17312      197.25005      704.86155    
     23700  -120316.58      668.49104     -119648.09      197.15429      197.23187      705.17678    
     23800  -120286.66      665.64783     -119621.01      197.13462      197.21388      705.49201    
     23900  -120264.51      666.00607     -119598.5       197.11539      197.19656      705.80725    
     24000  -120240.05      663.10607     -119576.95      197.0966       197.17868      706.12248    
     24100  -120213.39      668.26173     -119545.13      197.07717      197.15996      706.43771    
     24200  -120176.3       669.7593      -119506.54      197.05809      197.14178      706.75295    
     24300  -120154.94      672.95891     -119481.98      197.03821      197.12341      707.06818    
     24400  -120122.76      661.55667     -119461.21      197.02066      197.10681      707.38341    
     24500  -120092.12      658.07075     -119434.04      197.00083      197.08906      707.69865    
     24600  -120071.06      669.31887     -119401.74      196.98231      197.07207      708.01388    
     24700  -120036.64      675.21812     -119361.42      196.96281      197.05488      708.32911    
     24800  -120006.51      673.17467     -119333.34      196.94183      197.03727      708.64434    
     24900  -119982.5       669.97658     -119312.53      196.92485      197.02164      708.95958    
     25000  -119952.08      662.01767     -119290.06      196.90665      197.00465      709.27481    
     25100  -119929.25      665.97418     -119263.27      196.88993      196.98755      709.59004    
     25200  -119898.11      665.10276     -119233.01      196.87214      196.96945      709.90528    
     25300  -119863.8       667.22521     -119196.57      196.85382      196.95122      710.22051    
     25400  -119840.45      675.21809     -119165.23      196.83682      196.93427      710.53574    
     25500  -119811.5       668.12418     -119143.38      196.8178       196.91652      710.85098    
     25600  -119789.67      665.71435     -119123.95      196.8017       196.90077      711.16621    
     25700  -119757.56      663.18609     -119094.38      196.78364      196.88442      711.48144    
     25800  -119722.39      661.83975     -119060.55      196.76475      196.86823      711.79668    
     25900  -119691.75      665.17636     -119026.57      196.74751      196.85382      712.11191    
     26000  -119662.94      666.70402     -118996.23      196.72616      196.83804      712.42714    
     26100  -119637.51      669.75594     -118967.76      196.70773      196.82426      712.74238    
     26200  -119604.61      663.86005     -118940.75      196.68859      196.80978      713.05761    
     26300  -119582.3       667.53066     -118914.77      196.6695       196.79427      713.37284    
     26400  -119549.7       659.47        -118890.23      196.65347      196.77991      713.68808    
     26500  -119523.55      663.82208     -118859.73      196.63393      196.76205      714.00331    
     26600  -119483.75      662.27718     -118821.47      196.61904      196.74676      714.31854    
     26700  -119458.14      670.24199     -118787.89      196.60227      196.73008      714.63378    
     26800  -119418.77      658.82912     -118759.94      196.58602      196.71368      714.94901    
     26900  -119396.98      658.25815     -118738.72      196.57128      196.69806      715.26424    
     27000  -119378.63      662.06435     -118716.56      196.55371      196.68091      715.57948    
     27100  -119343.29      660.24073     -118683.05      196.53866      196.66665      715.89471    
     27200  -119314.49      666.32475     -118648.17      196.51986      196.65177      716.20994    
     27300  -119279.99      666.31482     -118613.68      196.50036      196.63792      716.52518    
     27400  -119245.86      665.79361     -118580.07      196.48266      196.62566      716.84041    
     27500  -119218.74      670.80782     -118547.93      196.46244      196.61241      717.15564    
     27600  -119184.78      666.13002     -118518.65      196.44462      196.60105      717.47088    
     27700  -119159.73      664.68928     -118495.04      196.42587      196.5889       717.78611    
     27800  -119132.33      661.4206      -118470.9       196.40671      196.57576      718.10134    
     27900  -119096.71      658.052       -118438.66      196.39008      196.56334      718.41658    
     28000  -119063.36      665.17765     -118398.19      196.37192      196.54882      718.73181    
     28100  -119030.99      664.89964     -118366.09      196.3562       196.53515      719.04704    
     28200  -119002.47      664.11038     -118338.36      196.34118      196.52048      719.36228    
     28300  -118975.46      662.26538     -118313.2       196.32511      196.50393      719.67751    
     28400  -118946.54      659.24452     -118287.3       196.31158      196.48829      719.99274    
     28500  -118908.08      655.89622     -118252.18      196.29611      196.47199      720.30798    
     28600  -118883.4       671.44455     -118211.95      196.28132      196.45768      720.62321    
     28700  -118847.46      668.97458     -118178.49      196.26525      196.44399      720.93844    
     28800  -118816.52      666.33855     -118150.18      196.2489       196.43142      721.25367    
     28900  -118795.36      667.67592     -118127.69      196.23189      196.41929      721.56891    
     29000  -118761.66      658.3218      -118103.33      196.21387      196.40708      721.88414    
     29100  -118730.55      662.01795     -118068.53      196.19621      196.39462      722.19937    
     29200  -118698.27      665.31727     -118032.95      196.17932      196.3814       722.51461    
     29300  -118660.92      663.68086     -117997.24      196.16298      196.36712      722.82984    
     29400  -118631.99      670.04904     -117961.94      196.1484       196.35288      723.14507    
     29500  -118599.42      669.41486     -117930         196.13489      196.33782      723.46031    
     29600  -118573.19      665.88266     -117907.31      196.12118      196.3219       723.77554    
     29700  -118542.71      660.72315     -117881.99      196.10896      196.3076       724.09077    
     29800  -118503.23      659.14907     -117844.08      196.09361      196.2925       724.40601    
     29900  -118474.68      667.40581     -117807.27      196.07923      196.27835      724.72124    
     30000  -118440.95      665.82216     -117775.13      196.06463      196.2631       725.03647    
     30100  -118412.78      669.01951     -117743.77      196.05063      196.24826      725.35171    
     30200  -118380.26      666.01094     -117714.25      196.03695      196.23428      725.66694    
     30300  -118348.74      662.83119     -117685.91      196.02143      196.22024      725.98217    
     30400  -118312.52      660.85415     -117651.67      196.00656      196.20756      726.29741    
     30500  -118277.51      665.97802     -117611.53      195.99052      196.19472      726.61264    
     30600  -118247.64      668.67856     -117578.96      195.9744       196.18243      726.92787    
     30700  -118222.31      670.12006     -117552.19      195.95877      196.16999      727.24311    
     30800  -118185.69      655.56826     -117530.12      195.94456      196.15738      727.55834    
     30900  -118156.84      655.09967     -117501.75      195.93099      196.14406      727.87357    
     31000  -118123.06      667.38467     -117455.67      195.91631      196.12987      728.18881    
     31100  -118087.66      668.8278      -117418.83      195.90228      196.1164       728.50404    
     31200  -118053.69      666.49574     -117387.19      195.8874       196.10236      728.81927    
     31300  -118019.02      660.85056     -117358.17      195.87257      196.08891      729.13451    
     31400  -117992.2       664.4842      -117327.71      195.85738      196.07575      729.44974    
     31500  -117954.62      660.27972     -117294.34      195.8425       196.06325      729.76497    
     31600  -117917.99      662.3362      -117255.66      195.82813      196.05116      730.08021    
     31700  -117887.22      668.26369     -117218.96      195.81422      196.03977      730.39544    
     31800  -117854.41      667.42497     -117186.99      195.79778      196.02736      730.71067    
     31900  -117826.48      663.49702     -117162.99      195.78297      196.01635      731.02591    
     32000  -117792.43      656.55312     -117135.87      195.76637      196.00411      731.34114    
     32100  -117759.27      660.31895     -117098.95      195.75067      195.99205      731.65637    
     32200  -117729.67      670.65845     -117059.01      195.73719      195.9803       731.97161    
     32300  -117691.25      666.14555     -117025.11      195.722        195.96566      732.28684    
     32400  -117663.11      669.64102     -116993.47      195.71067      195.95191      732.60207    
     32500  -117629.45      665.64782     -116963.8       195.69691      195.93695      732.91731    
     32600  -117605.37      666.4384      -116938.93      195.68252      195.92206      733.23254    
     32700  -117570.23      656.67847     -116913.55      195.66958      195.90959      733.54777    
     32800  -117531.72      660.86566     -116870.86      195.65307      195.89619      733.863      
     32900  -117495.93      664.30085     -116831.63      195.64037      195.88655      734.17824    
     33000  -117459.8       666.19504     -116793.6       195.62428      195.87488      734.49347    
     33100  -117432.06      673.70711     -116758.36      195.60883      195.8633       734.8087     
     33200  -117390.21      660.7758      -116729.44      195.59564      195.85213      735.12394    
     33300  -117371.21      668.16524     -116703.05      195.5788       195.83771      735.43917    
     33400  -117335.75      663.59139     -116672.16      195.56693      195.8255       735.7544     
     33500  -117296.97      669.18476     -116627.79      195.55205      195.80994      736.06964    
     33600  -117257.33      666.57902     -116590.75      195.5393       195.79619      736.38487    
     33700  -117222.98      663.08876     -116559.89      195.52691      195.78303      736.7001     
     33800  -117197.73      665.77438     -116531.95      195.51152      195.76912      737.01534    
     33900  -117161.67      656.57251     -116505.1       195.49908      195.75726      737.33057    
     34000  -117129.71      657.53667     -116472.17      195.48481      195.74428      737.6458     
     34100  -117092.06      665.41467     -116426.65      195.47046      195.73223      737.96104    
     34200  -117056.82      667.44813     -116389.38      195.4573       195.72084      738.27627    
     34300  -117019.06      663.31467     -116355.75      195.44205      195.70882      738.5915     
     34400  -116994.3       669.39516     -116324.91      195.4283       195.69751      738.90674    
     34500  -116956.73      662.10976     -116294.62      195.41257      195.68559      739.22197    
     34600  -116923.28      661.49421     -116261.78      195.39562      195.67297      739.5372     
     34700  -116888.62      665.76771     -116222.86      195.38176      195.66103      739.85244    
     34800  -116845.85      664.23476     -116181.62      195.36585      195.64838      740.16767    
     34900  -116809.87      665.03856     -116144.83      195.35015      195.63619      740.4829     
     35000  -116783.46      668.88429     -116114.58      195.33668      195.6263       740.79814    
     35100  -116753.79      660.32388     -116093.47      195.32097      195.61376      741.11337    
     35200  -116718.87      660.95444     -116057.91      195.30675      195.60271      741.4286     
     35300  -116682.58      665.78758     -116016.79      195.29164      195.59116      741.74384    
     35400  -116642.16      663.64712     -115978.52      195.27541      195.57843      742.05907    
     35500  -116609.44      666.74673     -115942.7       195.26274      195.56633      742.3743     
     35600  -116575.06      666.18853     -115908.88      195.24871      195.55255      742.68954    
     35700  -116541.22      657.09132     -115884.13      195.23498      195.53894      743.00477    
     35800  -116515.2       662.01333     -115853.19      195.22118      195.52538      743.32       
     35900  -116475.29      664.49477     -115810.79      195.20666      195.51161      743.63524    
     36000  -116432.63      662.3984      -115770.23      195.19228      195.49935      743.95047    
     36100  -116402.8       668.8775      -115733.92      195.17684      195.48654      744.2657     
     36200  -116371.29      670.34528     -115700.95      195.16209      195.47402      744.58094    
     36300  -116340.33      664.43024     -115675.9       195.14826      195.46118      744.89617    
     36400  -116304.12      658.20395     -115645.91      195.13477      195.44923      745.2114     
     36500  -116267         661.9419      -115605.06      195.1207       195.43605      745.52664    
     36600  -116226.81      660.68039     -115566.13      195.10712      195.42335      745.84187    
     36700  -116196.85      669.09149     -115527.76      195.0932       195.40976      746.1571     
     36800  -116151.9       661.93313     -115489.96      195.07969      195.39682      746.47233    
     36900  -116126.18      671.64382     -115454.54      195.06507      195.38306      746.78757    
     37000  -116084.6       658.91343     -115425.68      195.05152      195.3697       747.1028     
     37100  -116059.01      662.59887     -115396.41      195.03784      195.35661      747.41803    
     37200  -116023.89      665.50748     -115358.38      195.02358      195.34362      747.73327    
     37300  -115984.3       670.44061     -115313.86      195.00945      195.33148      748.0485     
     37400  -115945.93      668.06783     -115277.87      194.9939       195.31873      748.36373    
     37500  -115909.31      662.4306      -115246.88      194.97966      195.30715      748.67897    
     37600  -115877.14      662.77125     -115214.36      194.96245      195.29427      748.9942     
     37700  -115846.83      666.67857     -115180.15      194.94793      195.2826       749.30943    
     37800  -115804.14      666.41385     -115137.73      194.93385      195.27005      749.62467    
     37900  -115768.11      670.99853     -115097.11      194.91888      195.2566       749.9399     
     38000  -115738.44      671.57573     -115066.87      194.90557      195.24433      750.25513    
     38100  -115703.62      663.95572     -115039.66      194.89016      195.23095      750.57037    
     38200  -115669.47      664.35308     -115005.12      194.87653      195.21852      750.8856     
     38300  -115626.38      660.17317     -114966.21      194.86189      195.20549      751.20083    
     38400  -115592.74      664.03037     -114928.71      194.84596      195.19167      751.51607    
     38500  -115561.82      668.50487     -114893.31      194.83209      195.18006      751.8313     
     38600  -115526.1       668.48922     -114857.61      194.81595      195.1678       752.14653    
     38700  -115482.01      662.6678      -114819.35      194.80026      195.15585      752.46177    
     38800  -115442.45      668.2117      -114774.24      194.78506      195.14462      752.777      
     38900  -115407.82      670.77994     -114737.04      194.7679       195.13184      753.09223    
     39000  -115378.42      667.5091      -114710.91      194.75229      195.1208       753.40747    
     39100  -115340.29      661.11291     -114679.18      194.73471      195.10859      753.7227     
     39200  -115308.11      663.86272     -114644.24      194.71912      195.0977       754.03793    
     39300  -115273.15      667.77249     -114605.38      194.70372      195.08643      754.35317    
     39400  -115232.72      670.89391     -114561.82      194.68801      195.07363      754.6684     
     39500  -115194.36      669.40636     -114524.95      194.67463      195.06071      754.98363    
     39600  -115166.63      664.96293     -114501.67      194.66053      195.04531      755.29887    
     39700  -115132.8       664.12236     -114468.68      194.64755      195.03096      755.6141     
     39800  -115094.62      666.13593     -114428.48      194.63332      195.01646      755.92933    
     39900  -115050.66      664.12177     -114386.54      194.61968      195.00271      756.24457    
     40000  -115018.11      667.98989     -114350.12      194.60574      194.98882      756.5598     
     40100  -114986.2       664.96556     -114321.23      194.5911       194.97396      756.87503    
     40200  -114955.63      660.24831     -114295.38      194.57709      194.96086      757.19027    
     40300  -114916.54      661.92347     -114254.62      194.56109      194.94692      757.5055     
     40400  -114872.64      661.90729     -114210.74      194.54534      194.93455      757.82073    
     40500  -114835.69      665.51506     -114170.18      194.52953      194.92265      758.13597    
     40600  -114797.68      664.61708     -114133.06      194.51302      194.91082      758.4512     
     40700  -114761.82      660.57668     -114101.24      194.49695      194.89871      758.76643    
     40800  -114737.32      661.8112      -114075.51      194.48175      194.88574      759.08166    
     40900  -114699.4       660.94374     -114038.46      194.46698      194.87227      759.3969     
     41000  -114655.87      660.95856     -113994.91      194.45208      194.85766      759.71213    
     41100  -114623.68      667.57584     -113956.1       194.43851      194.84287      760.02736    
     41200  -114583.09      663.86385     -113919.23      194.42487      194.82663      760.3426     
     41300  -114551.04      668.12364     -113882.91      194.41221      194.81146      760.65783    
     41400  -114505.48      660.36785     -113845.12      194.39742      194.79663      760.97306    
     41500  -114474.65      668.31558     -113806.33      194.38191      194.78299      761.2883     
     41600  -114443.38      672.80736     -113770.58      194.36676      194.77152      761.60353    
     41700  -114400.01      658.90458     -113741.1       194.34892      194.75878      761.91876    
     41800  -114369.29      658.94148     -113710.34      194.33237      194.74743      762.234      
     41900  -114333.82      664.55726     -113669.27      194.31576      194.73522      762.54923    
     42000  -114291.63      667.67201     -113623.96      194.29938      194.72221      762.86446    
     42100  -114252.35      664.69809     -113587.65      194.28385      194.70894      763.1797     
     42200  -114222.14      668.20097     -113553.94      194.26828      194.6947       763.49493    
     42300  -114183.02      662.41123     -113520.61      194.25345      194.67977      763.81016    
     42400  -114153.41      665.40827     -113488         194.23964      194.66442      764.1254     
     42500  -114112.92      657.6422      -113455.28      194.2261       194.64994      764.44063    
     42600  -114076.63      663.95593     -113412.67      194.21102      194.63426      764.75586    
     42700  -114034.2       665.69126     -113368.51      194.19926      194.62051      765.0711     
     42800  -113997.82      667.3906      -113330.43      194.18422      194.60459      765.38633    
     42900  -113965.04      667.75975     -113297.28      194.16905      194.58942      765.70156    
     43000  -113932.51      660.70405     -113271.81      194.15539      194.57577      766.0168     
     43100  -113895.27      657.92039     -113237.35      194.13895      194.55986      766.33203    
     43200  -113854.92      659.46653     -113195.45      194.12569      194.54624      766.64726    
     43300  -113821.44      668.65347     -113152.79      194.10963      194.53191      766.9625     
     43400  -113774.63      663.10376     -113111.53      194.0931       194.5177       767.27773    
     43500  -113745.85      672.99628     -113072.85      194.07902      194.50511      767.59296    
     43600  -113703.92      661.02174     -113042.89      194.06183      194.49053      767.9082     
     43700  -113679.93      665.4162      -113014.51      194.04586      194.47678      768.22343    
     43800  -113635.08      661.69617     -112973.39      194.03076      194.46364      768.53866    
     43900  -113599.13      669.63247     -112929.5       194.01439      194.44894      768.8539     
     44000  -113553.36      662.45084     -112890.91      194.00122      194.43579      769.16913    
     44100  -113521.51      666.83207     -112854.68      193.98555      194.42072      769.48436    
     44200  -113482.81      660.84695     -112821.97      193.97046      194.40633      769.7996     
     44300  -113456.56      659.28953     -112797.27      193.95647      194.39252      770.11483    
     44400  -113420.15      661.4031      -112758.74      193.93903      194.37735      770.43006    
     44500  -113375.74      661.71882     -112714.02      193.92296      194.36321      770.7453     
     44600  -113341.03      669.44564     -112671.58      193.9078       194.34969      771.06053    
     44700  -113298.14      666.99396     -112631.14      193.89056      194.33467      771.37576    
     44800  -113254.77      660.50293     -112594.27      193.8759       194.32206      771.69099    
     44900  -113230.65      664.93471     -112565.72      193.85835      194.30809      772.00623    
     45000  -113195.96      662.83314     -112533.13      193.84121      194.29488      772.32146    
     45100  -113151.44      661.59666     -112489.84      193.82533      194.28229      772.63669    
     45200  -113111.49      665.41481     -112446.08      193.80783      194.26876      772.95193    
     45300  -113071.63      662.73852     -112408.89      193.79164      194.25632      773.26716    
     45400  -113041.69      668.02001     -112373.67      193.77528      194.24349      773.58239    
     45500  -113007.02      667.02539     -112340         193.75879      194.23001      773.89763    
     45600  -112970.47      658.90059     -112311.57      193.74293      194.21632      774.21286    
     45700  -112934.2       657.96505     -112276.23      193.72662      194.20145      774.52809    
     45800  -112894.48      665.43498     -112229.04      193.71203      194.18691      774.84333    
     45900  -112852.15      664.94139     -112187.21      193.69731      194.17167      775.15856    
     46000  -112816.3       667.73084     -112148.57      193.68129      194.15526      775.47379    
     46100  -112778.98      667.53462     -112111.45      193.66715      194.14041      775.78903    
     46200  -112743.36      665.87856     -112077.48      193.65159      194.12571      776.10426    
     46300  -112710.76      663.25795     -112047.5       193.63519      194.11137      776.41949    
     46400  -112671.55      660.35601     -112011.2       193.61965      194.09903      776.73473    
     46500  -112625.8       663.50072     -111962.3       193.60185      194.08615      777.04996    
     46600  -112589.2       667.74761     -111921.45      193.58486      194.07419      777.36519    
     46700  -112552.65      665.39049     -111887.26      193.56675      194.06146      777.68043    
     46800  -112514.72      658.64466     -111856.07      193.54943      194.04879      777.99566    
     46900  -112486.47      664.98967     -111821.48      193.53331      194.0354       778.31089    
     47000  -112444.37      662.93813     -111781.43      193.51816      194.02056      778.62613    
     47100  -112400.93      671.09626     -111729.83      193.50428      194.0046       778.94136    
     47200  -112364.19      672.00555     -111692.19      193.4898       193.98709      779.25659    
     47300  -112327.87      665.49971     -111662.37      193.47588      193.9704       779.57183    
     47400  -112288.38      658.29203     -111630.09      193.46067      193.95366      779.88706    
     47500  -112254.04      660.70718     -111593.33      193.44404      193.93791      780.20229    
     47600  -112219.22      666.05223     -111553.17      193.42806      193.92447      780.51753    
     47700  -112173.2       667.73753     -111505.46      193.41047      193.91198      780.83276    
     47800  -112135.24      669.93183     -111465.31      193.39254      193.90009      781.14799    
     47900  -112100.28      663.85059     -111436.43      193.37603      193.89022      781.46323    
     48000  -112067.51      666.081       -111401.43      193.35595      193.87801      781.77846    
     48100  -112023.35      657.82304     -111365.53      193.33852      193.86674      782.09369    
     48200  -112000.14      669.27407     -111330.87      193.32088      193.85286      782.40893    
     48300  -111951.8       655.43675     -111296.37      193.30358      193.83638      782.72416    
     48400  -111916.84      658.71278     -111258.13      193.29098      193.82116      783.03939    
     48500  -111880.87      667.02237     -111213.84      193.27661      193.80292      783.35463    
     48600  -111841.46      671.58565     -111169.87      193.26427      193.78622      783.66986    
     48700  -111801.83      668.08489     -111133.75      193.25172      193.77006      783.98509    
     48800  -111766.86      660.5121      -111106.35      193.23614      193.75266      784.30032    
     48900  -111732.45      662.48209     -111069.97      193.22249      193.73706      784.61556    
     49000  -111690.69      662.24955     -111028.44      193.20735      193.72187      784.93079    
     49100  -111651.32      665.08634     -110986.23      193.18969      193.70705      785.24602    
     49200  -111609.24      667.30786     -110941.93      193.17451      193.69535      785.56126    
     49300  -111568.16      669.19839     -110898.97      193.15664      193.68313      785.87649    
     49400  -111540.91      671.33611     -110869.58      193.13844      193.67069      786.19172    
     49500  -111503.99      665.62539     -110838.37      193.12282      193.65938      786.50696    
     49600  -111460.45      658.88186     -110801.56      193.10359      193.64407      786.82219    
     49700  -111424.19      663.91793     -110760.27      193.08893      193.62929      787.13742    
     49800  -111385.41      669.81477     -110715.59      193.07509      193.61357      787.45266    
     49900  -111343.68      671.30407     -110672.38      193.05869      193.59515      787.76789    
     50000  -111313.87      668.86862     -110645         193.04779      193.58001      788.08312    
     50100  -111278.53      666.54229     -110611.98      193.03368      193.56349      788.39836    
     50200  -111239.96      663.94508     -110576.01      193.01839      193.54785      788.71359    
     50300  -111204.26      666.512       -110537.75      193.00482      193.53512      789.02882    
     50400  -111161.45      664.20215     -110497.25      192.98671      193.52111      789.34406    
     50500  -111126.61      674.5839      -110452.02      192.96946      193.50863      789.65929    
     50600  -111079.96      670.21267     -110409.74      192.95196      193.49712      789.97452    
     50700  -111051.8       671.8783      -110379.93      192.93096      193.48359      790.28976    
     50800  -111013.94      666.62518     -110347.31      192.91441      193.47281      790.60499    
     50900  -110974.6       666.61051     -110307.99      192.89691      193.46021      790.92022    
     51000  -110929.11      663.00102     -110266.11      192.87799      193.44639      791.23546    
     51100  -110887.94      666.05626     -110221.88      192.86427      193.43431      791.55069    
     51200  -110854.15      673.23329     -110180.92      192.84714      193.41875      791.86592    
     51300  -110818.01      666.68569     -110151.32      192.83173      193.40346      792.18116    
     51400  -110779.1       661.32391     -110117.77      192.81814      193.38894      792.49639    
     51500  -110738.45      659.55085     -110078.9       192.80114      193.37224      792.81162    
     51600  -110703.08      666.50223     -110036.58      192.78712      193.35845      793.12686    
     51700  -110662.04      668.9717      -109993.07      192.77282      193.34611      793.44209    
     51800  -110619.23      664.91398     -109954.31      192.75387      193.33228      793.75732    
     51900  -110594.75      670.44963     -109924.3       192.73863      193.32149      794.07256    
     52000  -110551.57      662.40632     -109889.17      192.72059      193.30937      794.38779    
     52100  -110516.47      666.36723     -109850.1       192.70174      193.29653      794.70302    
     52200  -110476.21      667.91923     -109808.29      192.68553      193.28456      795.01826    
     52300  -110430.33      668.9459      -109761.38      192.6681       193.27008      795.33349    
     52400  -110392.99      671.88983     -109721.11      192.6527       193.25523      795.64872    
     52500  -110361.92      670.00314     -109691.91      192.63841      193.24127      795.96395    
     52600  -110320.18      663.55421     -109656.63      192.62145      193.22521      796.27919    
     52700  -110280.06      663.07229     -109616.99      192.60739      193.21067      796.59442    
     52800  -110243.37      664.57872     -109578.79      192.59302      193.1964       796.90965    
     52900  -110211.44      665.42513     -109546.01      192.57655      193.18229      797.22489    
     53000  -110173.9       662.67795     -109511.22      192.56141      193.17071      797.54012    
     53100  -110134.3       667.26602     -109467.04      192.54325      193.15787      797.85535    
     53200  -110085.42      668.77273     -109416.64      192.52704      193.14629      798.17059    
     53300  -110047.48      668.65732     -109378.82      192.5096       193.13423      798.48582    
     53400  -110012.44      666.74664     -109345.7       192.4913       193.12121      798.80105    
     53500  -109972.26      662.1799      -109310.08      192.47423      193.10901      799.11629    
     53600  -109934.77      662.71043     -109272.06      192.45552      193.09517      799.43152    
     53700  -109898.15      666.31535     -109231.83      192.43925      193.0827       799.74675    
     53800  -109861.66      665.36433     -109196.3       192.42295      193.07001      800.06199    
     53900  -109825.68      662.53475     -109163.14      192.4054       193.05593      800.37722    
     54000  -109786.3       665.76889     -109120.53      192.39112      193.04422      800.69245    
     54100  -109745.18      673.21854     -109071.96      192.37453      193.03023      801.00769    
     54200  -109701.45      672.70141     -109028.75      192.35942      193.01711      801.32292    
     54300  -109670.23      672.35603     -108997.87      192.34491      193.00414      801.63815    
     54400  -109622.39      661.18099     -108961.2       192.32675      192.98911      801.95339    
     54500  -109590.11      667.27952     -108922.83      192.3111       192.97647      802.26862    
     54600  -109548.28      661.83487     -108886.44      192.29448      192.96366      802.58385    
     54700  -109513.89      665.2102      -108848.68      192.27514      192.94983      802.89909    
     54800  -109468.54      661.20091     -108807.34      192.25939      192.93963      803.21432    
     54900  -109429.96      665.80992     -108764.15      192.24081      192.92682      803.52955    
     55000  -109388.41      664.14083     -108724.27      192.22388      192.91419      803.84479    
     55100  -109361.93      670.99144     -108690.94      192.20991      192.90273      804.16002    
     55200  -109319.58      664.06628     -108655.51      192.19232      192.88837      804.47525    
     55300  -109277.58      663.96552     -108613.61      192.17748      192.8754       804.79049    
     55400  -109234.88      665.73593     -108569.15      192.16303      192.86129      805.10572    
     55500  -109197.23      673.7931      -108523.44      192.14625      192.84516      805.42095    
     55600  -109157.61      671.09977     -108486.51      192.13255      192.83137      805.73619    
     55700  -109119.4       664.42679     -108454.97      192.11773      192.81662      806.05142    
     55800  -109085.75      668.16991     -108417.58      192.10245      192.80231      806.36665    
     55900  -109044.21      665.62405     -108378.59      192.08802      192.78879      806.68189    
     56000  -109006.32      665.35582     -108340.96      192.07137      192.77552      806.99712    
     56100  -108966.17      659.02468     -108307.14      192.05422      192.76272      807.31235    
     56200  -108928.19      659.4209      -108268.77      192.03806      192.75076      807.62759    
     56300  -108885.12      665.82437     -108219.3       192.02056      192.73832      807.94282    
     56400  -108837.52      668.48797     -108169.03      192.00402      192.72688      808.25805    
     56500  -108801.56      668.54475     -108133.02      191.98819      192.71464      808.57328    
     56600  -108768.75      670.44517     -108098.31      191.97253      192.70179      808.88852    
     56700  -108728.18      665.81463     -108062.37      191.95746      192.68864      809.20375    
     56800  -108688.88      662.99621     -108025.89      191.94041      192.67475      809.51898    
     56900  -108653.71      666.72884     -107986.99      191.9236       192.66116      809.83422    
     57000  -108610.73      663.54988     -107947.18      191.9075       192.64851      810.14945    
     57100  -108575.87      660.81687     -107915.05      191.8908       192.63613      810.46468    
     57200  -108538.72      663.06165     -107875.66      191.87419      192.62473      810.77992    
     57300  -108490.26      663.21518     -107827.05      191.85725      192.61293      811.09515    
     57400  -108451.83      671.48291     -107780.35      191.84123      192.60189      811.41038    
     57500  -108411.15      669.98352     -107741.17      191.82338      192.5899       811.72562    
     57600  -108369.27      667.16329     -107702.11      191.80536      192.57784      812.04085    
     57700  -108334.97      669.30743     -107665.66      191.78858      192.5659       812.35608    
     57800  -108291.87      662.05445     -107629.82      191.77088      192.55244      812.67132    
     57900  -108256.66      666.42941     -107590.23      191.75434      192.53997      812.98655    
     58000  -108217.73      667.15139     -107550.58      191.73873      192.52779      813.30178    
     58100  -108175.71      660.3902      -107515.31      191.72183      192.51509      813.61702    
     58200  -108141.14      661.55387     -107479.58      191.7064       192.50369      813.93225    
     58300  -108094.36      661.27608     -107433.09      191.68936      192.49175      814.24748    
     58400  -108053.54      667.70937     -107385.83      191.67216      192.47938      814.56272    
     58500  -108011.08      668.65183     -107342.43      191.65542      192.46722      814.87795    
     58600  -107977.43      666.75786     -107310.67      191.639        192.45467      815.19318    
     58700  -107940         668.60653     -107271.4       191.62281      192.44225      815.50842    
     58800  -107892.37      664.75393     -107227.62      191.60741      192.43017      815.82365    
     58900  -107849.73      663.24916     -107186.49      191.59023      192.41598      816.13888    
     59000  -107817.49      666.63906     -107150.85      191.57506      192.40177      816.45412    
     59100  -107779.51      667.95223     -107111.55      191.56088      192.38796      816.76935    
     59200  -107727.18      658.83378     -107068.35      191.54363      192.37268      817.08458    
     59300  -107687.53      663.70527     -107023.83      191.52907      192.36096      817.39982    
     59400  -107650.55      668.41218     -106982.13      191.5119       192.34811      817.71505    
     59500  -107602.87      662.58322     -106940.28      191.49399      192.33548      818.03028    
     59600  -107571.56      671.52818     -106900.03      191.47898      192.32529      818.34552    
     59700  -107531.02      666.93864     -106864.08      191.46006      192.31227      818.66075    
     59800  -107487.35      663.62341     -106823.73      191.44456      192.30062      818.97598    
     59900  -107449.12      667.21633     -106781.9       191.4298       192.28878      819.29122    
     60000  -107410.69      665.85677     -106744.83      191.41138      192.27403      819.60645    
     60100  -107367.96      660.9852      -106706.97      191.39787      192.26294      819.92168    
     60200  -107326.33      663.62613     -106662.7       191.38081      192.24765      820.23692    
     60300  -107283.15      666.12967     -106617.02      191.36552      192.23266      820.55215    
     60400  -107246.12      671.90646     -106574.21      191.35282      192.21923      820.86738    
     60500  -107201.63      663.78722     -106537.85      191.33614      192.20295      821.18261    
     60600  -107161.44      665.8151      -106495.63      191.32331      192.18979      821.49785    
     60700  -107117.9       666.09963     -106451.8       191.3086       192.176        821.81308    
     60800  -107072.65      662.57941     -106410.07      191.29129      192.16135      822.12831    
     60900  -107037.07      668.5102      -106368.56      191.2773       192.15002      822.44355    
     61000  -106996.41      670.70999     -106325.7       191.25918      192.13555      822.75878    
     61100  -106945.58      662.40993     -106283.17      191.24418      192.12387      823.07401    
     61200  -106912.16      668.46996     -106243.69      191.2281       192.11166      823.38925    
     61300  -106861.97      659.70807     -106202.26      191.21001      192.09827      823.70448    
     61400  -106825.17      666.08569     -106159.09      191.19564      192.08748      824.01971    
     61500  -106781.75      663.28568     -106118.46      191.17738      192.07249      824.33495    
     61600  -106738.62      663.8686      -106074.75      191.16303      192.05938      824.65018    
     61700  -106700.71      670.30087     -106030.4       191.14855      192.04512      824.96541    
     61800  -106654.02      664.49497     -105989.52      191.13206      192.02851      825.28065    
     61900  -106615.01      668.09721     -105946.91      191.11935      192.01557      825.59588    
     62000  -106572.67      668.27557     -105904.39      191.10303      192.00063      825.91111    
     62100  -106524.78      664.37237     -105860.4       191.08771      191.98701      826.22635    
     62200  -106482.72      665.19598     -105817.53      191.07321      191.97431      826.54158    
     62300  -106445.6       669.71992     -105775.88      191.0568       191.95917      826.85681    
     62400  -106401.11      667.35981     -105733.75      191.04366      191.94698      827.17205    
     62500  -106358.21      666.91027     -105691.3       191.02674      191.93192      827.48728    
     62600  -106319.07      672.16352     -105646.91      191.01125      191.91904      827.80251    
     62700  -106273.57      670.52487     -105603.04      190.99561      191.90693      828.11775    
     62800  -106227.26      667.4432      -105559.82      190.97824      191.89299      828.43298    
     62900  -106181.94      667.1758      -105514.77      190.96322      191.88074      828.74821    
     63000  -106140.38      669.73159     -105470.65      190.94658      191.86659      829.06345    
     63100  -106096.84      670.33964     -105426.5       190.93089      191.85354      829.37868    
     63200  -106054.55      672.98101     -105381.57      190.91481      191.84017      829.69391    
     63300  -106004.07      666.48703     -105337.59      190.89799      191.8268       830.00915    
     63400  -105959.39      665.91263     -105293.48      190.88288      191.81467      830.32438    
     63500  -105919.25      668.54784     -105250.7       190.86625      191.8005       830.63961    
     63600  -105873.06      667.59977     -105205.46      190.85114      191.78702      830.95485    
     63700  -105830         667.46476     -105162.54      190.83572      191.77277      831.27008    
     63800  -105787.5       670.10189     -105117.4       190.81995      191.75881      831.58531    
     63900  -105741.1       668.9435      -105072.16      190.80519      191.74527      831.90055    
     64000  -105693.6       666.3732      -105027.23      190.78886      191.73038      832.21578    
     64100  -105650.78      670.692       -104980.09      190.7744       191.7173       832.53101    
     64200  -105602.71      668.15642     -104934.56      190.75797      191.70219      832.84625    
     64300  -105552.14      663.81865     -104888.32      190.74239      191.68802      833.16148    
     64400  -105516.82      673.46652     -104843.35      190.72715      191.6743       833.47671    
     64500  -105469.12      671.53932     -104797.58      190.71058      191.66035      833.79194    
     64600  -105418.11      667.17385     -104750.93      190.6955       191.64766      834.10718    
     64700  -105370.57      666.48086     -104704.09      190.67918      191.63328      834.42241    
     64800  -105321.46      664.40071     -104657.05      190.66407      191.61978      834.73764    
     64900  -105280.59      671.08663     -104609.51      190.64832      191.60518      835.05288    
     65000  -105232.67      669.31302     -104563.36      190.63225      191.59023      835.36811    
     65100  -105186.67      669.45525     -104517.21      190.61733      191.57614      835.68334    
     65200  -105136.26      664.66849     -104471.59      190.60105      191.56101      835.99858    
     65300  -105087.83      664.591       -104423.24      190.58606      191.54746      836.31381    
     65400  -105048.02      671.68818     -104376.33      190.57072      191.53402      836.62904    
     65500  -104997.79      669.51196     -104328.28      190.55431      191.51994      836.94428    
     65600  -104947.71      668.92403     -104278.78      190.53906      191.50706      837.25951    
     65700  -104902.93      671.96147     -104230.97      190.52231      191.49222      837.57474    
     65800  -104853.74      670.26846     -104183.47      190.50743      191.47929      837.88998    
     65900  -104805.96      671.1675      -104134.8       190.49023      191.46516      838.20521    
     66000  -104758.55      672.38009     -104086.17      190.47335      191.45176      838.52044    
     66100  -104709.76      672.13526     -104037.62      190.45814      191.4394       838.83568    
     66200  -104657.53      668.89426     -103988.64      190.44038      191.42461      839.15091    
     66300  -104609.58      671.49648     -103938.08      190.42514      191.41264      839.46614    
     66400  -104554.62      666.73762     -103887.89      190.40788      191.3984       839.78138    
     66500  -104511.02      673.18937     -103837.83      190.39154      191.38445      840.09661    
     66600  -104460.05      672.83909     -103787.22      190.37596      191.37114      840.41184    
     66700  -104404.53      668.82601     -103735.71      190.35869      191.35623      840.72708    
     66800  -104354.02      667.89073     -103686.13      190.34419      191.34364      841.04231    
     66900  -104307.08      670.10088     -103636.98      190.32737      191.32865      841.35754    
     67000  -104257.66      671.75843     -103585.9       190.31119      191.31497      841.67278    
     67100  -104210.97      676.38377     -103534.59      190.29511      191.30194      841.98801    
     67200  -104154.1       670.67594     -103483.43      190.27704      191.28663      842.30324    
     67300  -104105         672.89333     -103432.11      190.26246      191.27496      842.61848    
     67400  -104050.46      670.52559     -103379.93      190.24399      191.25998      842.93371    
     67500  -104000.18      672.68538     -103327.49      190.22744      191.24739      843.24894    
     67600  -103947.54      671.34439     -103276.19      190.21142      191.23462      843.56418    
     67700  -103891.39      667.09639     -103224.3       190.19389      191.21974      843.87941    
     67800  -103842.56      669.93694     -103172.62      190.17938      191.20741      844.19464    
     67900  -103789.6       669.49961     -103120.1       190.16249      191.19193      844.50988    
     68000  -103738.37      671.76984     -103066.6       190.14827      191.17828      844.82511    
     68100  -103683.15      669.99685     -103013.15      190.1322       191.16365      845.14034    
     68200  -103628.92      670.96488     -102957.95      190.1153       191.14958      845.45558    
     68300  -103582.29      676.35729     -102905.93      190.09929      191.1375       845.77081    
     68400  -103523.94      671.76755     -102852.17      190.08085      191.12327      846.08604    
     68500  -103469.99      673.10689     -102796.88      190.06523      191.11127      846.40127    
     68600  -103415.19      672.08989     -102743.1       190.04735      191.0966       846.71651    
     68700  -103362.21      675.04215     -102687.17      190.03163      191.08303      847.03174    
     68800  -103305.28      672.73792     -102632.54      190.01591      191.0694       847.34697    
     68900  -103252.1       676.12337     -102575.98      189.99851      191.05438      847.66221    
     69000  -103191.14      670.1342      -102521.01      189.98334      191.04175      847.97744    
     69100  -103133.42      669.55591     -102463.87      189.96588      191.02714      848.29267    
     69200  -103081.07      673.65254     -102407.41      189.95052      191.01403      848.60791    
     69300  -103031.06      679.06272     -102352         189.93484      191.00017      848.92314    
     69400  -102968.8       672.36156     -102296.44      189.9182       190.98542      849.23837    
     69500  -102914.81      673.22832     -102241.59      189.90317      190.97299      849.55361    
     69600  -102855.72      672.02078     -102183.7       189.88515      190.95794      849.86884    
     69700  -102798.1       669.8283      -102128.27      189.86995      190.94583      850.18407    
     69800  -102747         673.96037     -102073.04      189.85287      190.93118      850.49931    
     69900  -102693.41      676.29768     -102017.12      189.83668      190.9164       850.81454    
     70000  -102632.94      673.69098     -101959.25      189.8221       190.90243      851.12977    
     70100  -102575.06      674.71473     -101900.35      189.80533      190.88616      851.44501    
     70200  -102519.43      678.19284     -101841.24      189.79072      190.87272      851.76024    
     70300  -102454.36      674.80778     -101779.55      189.77347      190.85792      852.07547    
     70400  -102392.44      671.85833     -101720.58      189.75716      190.84465      852.39071    
     70500  -102347.15      682.61982     -101664.53      189.74138      190.83161      852.70594    
     70600  -102276.41      673.25508     -101603.15      189.72447      190.81709      853.02117    
     70700  -102221.17      680.03027     -101541.14      189.70887      190.80336      853.33641    
     70800  -102161.68      680.39477     -101481.28      189.6925       190.78873      853.65164    
     70900  -102104.84      682.13811     -101422.71      189.67629      190.77436      853.96687    
     71000  -102045.76      683.0208      -101362.74      189.66017      190.76046      854.28211    
     71100  -101976.53      673.35308     -101303.18      189.64403      190.74624      854.59734    
     71200  -101921.77      678.00417     -101243.76      189.62835      190.732        854.91257    
     71300  -101860.77      679.97411     -101180.79      189.61284      190.7175       855.22781    
     71400  -101805.5       687.3811      -101118.12      189.59711      190.70292      855.54304    
     71500  -101738.58      680.58862     -101057.99      189.58157      190.68847      855.85827    
     71600  -101681.69      686.80519     -100994.88      189.56563      190.67359      856.17351    
     71700  -101613.23      680.59717     -100932.64      189.54938      190.65921      856.48874    
     71800  -101557.06      688.32703     -100868.73      189.53327      190.64506      856.80397    
     71900  -101490.91      684.6853      -100806.23      189.51671      190.63049      857.11921    
     72000  -101430.7       686.85247     -100743.85      189.50144      190.61641      857.43444    
     72100  -101361.62      682.39871     -100679.22      189.4855       190.60165      857.74967    
     72200  -101310.43      697.33245     -100613.1       189.47001      190.58718      858.06491    
     72300  -101233.81      684.75888     -100549.05      189.45439      190.57277      858.38014    
     72400  -101170.28      683.05196     -100487.23      189.43791      190.55815      858.69537    
     72500  -101118.13      696.16769     -100421.96      189.42246      190.54486      859.0106     
     72600  -101048.59      691.40111     -100357.19      189.40507      190.52987      859.32584    
     72700  -100983.07      690.07713     -100292.99      189.38867      190.51594      859.64107    
[...]
    129100  -123234.71      659.67213     -122575.03      194.18657      190.77205      1037.4326    
    129200  -123239.81      668.43083     -122571.38      194.19259      190.76455      1037.7479    
    129300  -123236.09      662.07574     -122574.01      194.19593      190.75746      1038.0631    
    129400  -123242.23      662.99497     -122579.24      194.19519      190.75009      1038.3783    
    129500  -123243.59      662.40316     -122581.19      194.1908       190.74092      1038.6936    
    129600  -123237.96      660.32262     -122577.63      194.18495      190.73289      1039.0088    
    129700  -123239.09      669.59833     -122569.49      194.17426      190.72559      1039.324     
    129800  -123233.63      668.82442     -122564.81      194.16267      190.72155      1039.6393    
    129900  -123239.74      671.15185     -122568.59      194.14717      190.71683      1039.9545    
    130000  -123240.56      665.05164     -122575.5       194.12943      190.714        1040.2697    
    130100  -123237.83      659.32177     -122578.51      194.10837      190.71241      1040.585     
    130200  -123237.69      662.95212     -122574.74      194.08526      190.70935      1040.9002    
    130300  -123237.11      668.48222     -122568.63      194.06249      190.70707      1041.2154    
    130400  -123236.81      670.30055     -122566.5       194.03607      190.7036       1041.5307    
    130500  -123234.05      663.79564     -122570.26      194.00694      190.70141      1041.8459    
    130600  -123241.62      666.9241      -122574.69      193.97465      190.6984       1042.1611    
    130700  -123235.32      660.98962     -122574.33      193.94087      190.69709      1042.4764    
    130800  -123233.91      662.88049     -122571.03      193.90582      190.69627      1042.7916    
    130900  -123234.4       665.30412     -122569.1       193.87162      190.69641      1043.1068    
    131000  -123240.24      668.56747     -122571.67      193.83628      190.69578      1043.4221    
    131100  -123238.49      662.93187     -122575.56      193.80257      190.69758      1043.7373    
    131200  -123236.26      658.03625     -122578.22      193.76838      190.69737      1044.0525    
    131300  -123241.78      664.40153     -122577.38      193.7338       190.69647      1044.3678    
    131400  -123248.78      672.53123     -122576.25      193.69821      190.69597      1044.683     
    131500  -123236.98      661.24121     -122575.74      193.66184      190.694        1044.9982    
    131600  -123242.48      666.74176     -122575.74      193.62819      190.69258      1045.3135    
    131700  -123237.04      665.05041     -122571.99      193.59361      190.68744      1045.6287    
    131800  -123237.4       669.32831     -122568.07      193.56007      190.68419      1045.9439    
    131900  -123235.18      668.52843     -122566.65      193.52466      190.67949      1046.2592    
    132000  -123237.28      667.77687     -122569.5       193.49181      190.6759       1046.5744    
    132100  -123235.45      662.69627     -122572.76      193.45748      190.67035      1046.8896    
    132200  -123228.75      655.81474     -122572.94      193.42224      190.66717      1047.2049    
    132300  -123235.22      666.60971     -122568.61      193.38542      190.6635       1047.5201    
    132400  -123240.47      675.60398     -122564.87      193.34868      190.66037      1047.8353    
    132500  -123235.04      669.55526     -122565.49      193.31177      190.65704      1048.1506    
    132600  -123234.31      663.92605     -122570.38      193.27383      190.65375      1048.4658    
    132700  -123236.09      662.79092     -122573.3       193.23516      190.64968      1048.781     
    132800  -123237.55      663.6633      -122573.89      193.19499      190.64272      1049.0963    
    132900  -123234.7       662.05781     -122572.64      193.15468      190.63664      1049.4115    
    133000  -123239.79      669.9318      -122569.86      193.11461      190.63182      1049.7267    
    133100  -123238.72      669.27113     -122569.45      193.07239      190.62631      1050.042     
    133200  -123235.19      663.69373     -122571.49      193.02881      190.62136      1050.3572    
    133300  -123240.65      666.61735     -122574.03      192.98492      190.61613      1050.6724    
    133400  -123244.94      669.36165     -122575.58      192.94101      190.61181      1050.9877    
    133500  -123235.53      660.83977     -122574.69      192.89469      190.60589      1051.3029    
    133600  -123233.79      662.1707      -122571.62      192.84753      190.60153      1051.6181    
    133700  -123236.53      666.24905     -122570.28      192.80102      190.59675      1051.9334    
    133800  -123239.45      664.46026     -122574.99      192.75484      190.59125      1052.2486    
    133900  -123250.17      667.38283     -122582.79      192.70763      190.58351      1052.5638    
    134000  -123252.15      663.16847     -122588.98      192.66314      190.57638      1052.8791    
    134100  -123249.45      660.4736      -122588.98      192.61942      190.5665       1053.1943    
    134200  -123252.04      668.0088      -122584.03      192.57901      190.55726      1053.5095    
    134300  -123249.84      668.23787     -122581.6       192.53936      190.54477      1053.8248    
    134400  -123253.84      668.05652     -122585.78      192.50288      190.5326       1054.14      
    134500  -123256.5       663.23259     -122593.27      192.47014      190.51958      1054.4552    
    134600  -123262.39      664.03017     -122598.36      192.43728      190.50532      1054.7705    
    134700  -123254.33      658.17847     -122596.15      192.40735      190.49472      1055.0857    
    134800  -123259.17      670.58868     -122588.58      192.37708      190.482        1055.4009    
    134900  -123254.19      669.75883     -122584.43      192.35049      190.47051      1055.7162    
    135000  -123256.95      668.27929     -122588.67      192.32193      190.45838      1056.0314    
    135100  -123264.7       664.89252     -122599.81      192.2961       190.44894      1056.3466    
    135200  -123274.33      666.11032     -122608.22      192.27         190.43624      1056.6619    
    135300  -123271.3       663.48901     -122607.81      192.24434      190.42516      1056.9771    
    135400  -123270.37      670.64451     -122599.72      192.21895      190.41503      1057.2923    
    135500  -123261.77      668.96827     -122592.8       192.1954       190.40551      1057.6076    
    135600  -123267.46      671.7142      -122595.75      192.17393      190.39791      1057.9228    
    135700  -123275.77      669.42804     -122606.34      192.15001      190.38857      1058.238     
    135800  -123273.87      657.76604     -122616.1       192.1316       190.38328      1058.5533    
    135900  -123278.85      661.76519     -122617.08      192.11129      190.37505      1058.8685    
    136000  -123275.03      665.21396     -122609.82      192.09243      190.36957      1059.1837    
    136100  -123271.19      669.98867     -122601.2       192.07313      190.3648       1059.499     
    136200  -123270.65      670.27013     -122600.38      192.05532      190.36046      1059.8142    
    136300  -123279.79      670.49875     -122609.29      192.03898      190.35739      1060.1294    
    136400  -123282.58      661.80666     -122620.77      192.02145      190.35325      1060.4447    
    136500  -123284.11      658.79561     -122625.31      192.00618      190.35139      1060.7599    
    136600  -123284.79      664.2354      -122620.55      191.99093      190.34786      1061.0751    
    136700  -123276.71      666.98336     -122609.73      191.97741      190.34591      1061.3904    
    136800  -123276.33      670.83116     -122605.5       191.96444      190.34515      1061.7056    
    136900  -123278.54      667.25593     -122611.28      191.95153      190.34268      1062.0208    
    137000  -123289.79      667.85848     -122621.93      191.94285      190.34453      1062.3361    
    137100  -123289.48      661.73343     -122627.75      191.93183      190.34231      1062.6513    
    137200  -123281.52      658.91735     -122622.6       191.92347      190.34149      1062.9665    
    137300  -123283.14      669.69374     -122613.45      191.91649      190.33874      1063.2818    
    137400  -123282.98      673.08453     -122609.89      191.91236      190.33453      1063.597     
    137500  -123287.43      670.64006     -122616.79      191.90982      190.32964      1063.9122    
    137600  -123290.01      660.71043     -122629.3       191.90865      190.3233       1064.2275    
    137700  -123296.25      660.0638      -122636.19      191.90912      190.31811      1064.5427    
    137800  -123295.54      663.43213     -122632.11      191.91135      190.31411      1064.8579    
    137900  -123290.5       667.92077     -122622.58      191.91403      190.31058      1065.1732    
    138000  -123290.23      671.83603     -122618.39      191.91858      190.30812      1065.4884    
    138100  -123294.84      670.42306     -122624.42      191.92529      190.30413      1065.8036    
    138200  -123297.21      660.92517     -122636.28      191.93364      190.30038      1066.1188    
    138300  -123303.24      659.70259     -122643.54      191.94498      190.297        1066.4341    
    138400  -123303.97      662.26342     -122641.71      191.95642      190.29236      1066.7493    
    138500  -123300.57      666.48993     -122634.08      191.97039      190.28971      1067.0645    
    138600  -123305.69      674.45066     -122631.24      191.9852       190.2856       1067.3798    
    138700  -123303.58      665.57373     -122638         192.00244      190.28215      1067.695     
    138800  -123309.23      661.26648     -122647.97      192.02264      190.27799      1068.0102    
    138900  -123312.34      657.8674      -122654.47      192.04524      190.27486      1068.3255    
    139000  -123312.1       660.8163      -122651.28      192.06961      190.27143      1068.6407    
    139100  -123307.75      666.08969     -122641.66      192.09592      190.26861      1068.9559    
    139200  -123305.83      670.25914     -122635.57      192.12334      190.26536      1069.2712    
    139300  -123306.83      668.56609     -122638.26      192.15301      190.26439      1069.5864    
    139400  -123311.13      663.85797     -122647.27      192.18321      190.26334      1069.9016    
    139500  -123321.79      665.93336     -122655.86      192.21513      190.26138      1070.2169    
    139600  -123317.31      661.78373     -122655.53      192.24995      190.26085      1070.5321    
    139700  -123311.42      665.51347     -122645.9       192.28671      190.25931      1070.8473    
    139800  -123308.57      674.31374     -122634.26      192.32719      190.25836      1071.1626    
    139900  -123303.86      673.47622     -122630.39      192.36937      190.25673      1071.4778    
    140000  -123305.14      666.50712     -122638.63      192.41365      190.25516      1071.793     
    140100  -123311.24      662.52202     -122648.72      192.45883      190.25502      1072.1083    
    140200  -123314.32      665.03111     -122649.29      192.50283      190.25316      1072.4235    
    140300  -123307.5       667.76668     -122639.74      192.54951      190.25456      1072.7387    
    140400  -123299.05      669.86032     -122629.19      192.59481      190.25417      1073.054     
    140500  -123297.23      669.46522     -122627.76      192.6416       190.25573      1073.3692    
    140600  -123298.44      665.52145     -122632.92      192.68738      190.25731      1073.6844    
    140700  -123298.11      659.61687     -122638.5       192.73375      190.26031      1073.9997    
    140800  -123302.34      664.65548     -122637.68      192.78175      190.26693      1074.3149    
    140900  -123293.56      664.2589      -122629.3       192.82607      190.27058      1074.6301    
    141000  -123293.83      672.76468     -122621.06      192.87358      190.27832      1074.9454    
    141100  -123289.06      669.29632     -122619.77      192.9189       190.28307      1075.2606    
    141200  -123286.16      661.19884     -122624.96      192.96554      190.29015      1075.5758    
    141300  -123292.03      664.96505     -122627.06      193.0107       190.29606      1075.8911    
    141400  -123284.71      662.53677     -122622.18      193.05646      190.3019       1076.2063    
    141500  -123281.13      666.80253     -122614.33      193.10179      190.30961      1076.5215    
    141600  -123280.18      670.39209     -122609.79      193.14225      190.31447      1076.8368    
    141700  -123279.89      668.55186     -122611.34      193.18273      190.32258      1077.152     
    141800  -123280.18      663.46894     -122616.71      193.22072      190.32785      1077.4672    
    141900  -123277.91      659.88853     -122618.02      193.25837      190.33589      1077.7825    
    142000  -123275.17      664.09722     -122611.07      193.29344      190.34297      1078.0977    
    142100  -123267.95      666.18987     -122601.76      193.32584      190.3479       1078.4129    
    142200  -123266.63      668.38122     -122598.25      193.35982      190.35605      1078.7282    
    142300  -123277.56      674.31697     -122603.25      193.38831      190.36283      1079.0434    
    142400  -123269.31      657.73322     -122611.58      193.41612      190.37328      1079.3586    
    142500  -123271.16      656.4787      -122614.68      193.44028      190.38241      1079.6739    
    142600  -123274.43      665.61492     -122608.81      193.46225      190.39296      1079.9891    
    142700  -123266.96      668.52774     -122598.44      193.48255      190.40534      1080.3043    
    142800  -123272.45      678.17551     -122594.28      193.49803      190.4136       1080.6196    
    142900  -123265.69      664.3348      -122601.36      193.51403      190.42524      1080.9348    
    143000  -123275.79      663.83945     -122611.95      193.52501      190.43354      1081.25      
    143100  -123274.36      658.89199     -122615.47      193.53577      190.44409      1081.5653    
    143200  -123272.53      664.67023     -122607.86      193.54492      190.45225      1081.8805    
    143300  -123271.34      673.93986     -122597.4       193.55331      190.45994      1082.1957    
    143400  -123262.71      668.17901     -122594.53      193.56102      190.46834      1082.511     
    143500  -123270.46      669.11841     -122601.34      193.56578      190.47194      1082.8262    
    143600  -123270.57      660.76535     -122609.8       193.57355      190.4774       1083.1414    
    143700  -123269.29      658.69997     -122610.59      193.57876      190.48112      1083.4567    
    143800  -123270.63      667.60908     -122603.02      193.58495      190.48542      1083.7719    

===================================================================================
=   BAD TERMINATION OF ONE OF YOUR APPLICATION PROCESSES
=   RANK 0 PID 1031906 RUNNING AT amax
=   KILLED BY SIGNAL: 15 (Terminated)
===================================================================================

===================================================================================
=   BAD TERMINATION OF ONE OF YOUR APPLICATION PROCESSES
=   RANK 1 PID 1031907 RUNNING AT amax
=   KILLED BY SIGNAL: 15 (Terminated)
===================================================================================

===================================================================================
=   BAD TERMINATION OF ONE OF YOUR APPLICATION PROCESSES
=   RANK 2 PID 1031908 RUNNING AT amax
=   KILLED BY SIGNAL: 15 (Terminated)
===================================================================================

===================================================================================
=   BAD TERMINATION OF ONE OF YOUR APPLICATION PROCESSES
=   RANK 3 PID 1031909 RUNNING AT amax
=   KILLED BY SIGNAL: 15 (Terminated)
===================================================================================

===================================================================================
=   BAD TERMINATION OF ONE OF YOUR APPLICATION PROCESSES
=   RANK 4 PID 1031910 RUNNING AT amax
=   KILLED BY SIGNAL: 15 (Terminated)
===================================================================================

===================================================================================
=   BAD TERMINATION OF ONE OF YOUR APPLICATION PROCESSES
=   RANK 5 PID 1031911 RUNNING AT amax
=   KILLED BY SIGNAL: 15 (Terminated)
===================================================================================

===================================================================================
=   BAD TERMINATION OF ONE OF YOUR APPLICATION PROCESSES
=   RANK 6 PID 1031912 RUNNING AT amax
=   KILLED BY SIGNAL: 15 (Terminated)
===================================================================================

===================================================================================
=   BAD TERMINATION OF ONE OF YOUR APPLICATION PROCESSES
=   RANK 7 PID 1031913 RUNNING AT amax
=   KILLED BY SIGNAL: 15 (Terminated)
===================================================================================

===================================================================================
=   BAD TERMINATION OF ONE OF YOUR APPLICATION PROCESSES
=   RANK 8 PID 1031914 RUNNING AT amax
=   KILLED BY SIGNAL: 15 (Terminated)
===================================================================================

===================================================================================
=   BAD TERMINATION OF ONE OF YOUR APPLICATION PROCESSES
=   RANK 9 PID 1031915 RUNNING AT amax
=   KILLED BY SIGNAL: 15 (Terminated)
===================================================================================

===================================================================================
=   BAD TERMINATION OF ONE OF YOUR APPLICATION PROCESSES
=   RANK 10 PID 1031916 RUNNING AT amax
=   KILLED BY SIGNAL: 15 (Terminated)
===================================================================================

===================================================================================
=   BAD TERMINATION OF ONE OF YOUR APPLICATION PROCESSES
=   RANK 11 PID 1031917 RUNNING AT amax
=   KILLED BY SIGNAL: 15 (Terminated)
===================================================================================

===================================================================================
=   BAD TERMINATION OF ONE OF YOUR APPLICATION PROCESSES
=   RANK 12 PID 1031918 RUNNING AT amax
=   KILLED BY SIGNAL: 15 (Terminated)
===================================================================================

===================================================================================
=   BAD TERMINATION OF ONE OF YOUR APPLICATION PROCESSES
=   RANK 13 PID 1031919 RUNNING AT amax
=   KILLED BY SIGNAL: 15 (Terminated)
===================================================================================

===================================================================================
=   BAD TERMINATION OF ONE OF YOUR APPLICATION PROCESSES
=   RANK 14 PID 1031920 RUNNING AT amax
=   KILLED BY SIGNAL: 15 (Terminated)
===================================================================================

===================================================================================
=   BAD TERMINATION OF ONE OF YOUR APPLICATION PROCESSES
=   RANK 15 PID 1031921 RUNNING AT amax
=   KILLED BY SIGNAL: 15 (Terminated)
===================================================================================
