LAMMPS data file via write_data, version 2 Aug 2023, timestep = 0, units = metal

17160 atoms
3 atom types

-100 100 xlo xhi
-100 100 ylo yhi
-2.3312515 628.1352475 zlo zhi

Masses

1 12.0107
2 12.0107
3 12.0107

Atoms # atomic

8 1 -1.392903 -7.899546 0 0 0 0
9 1 -4.010705 -6.946744 0 0 0 0
10 1 -5.156062 -6.144756 0 0 0 0
11 1 -6.946744 -4.010705 0 0 0 0
12 1 -7.537659 -2.743484 0 0 0 0
31 1 -2.076093 -7.748086 1.212436 0 0 0
32 1 -3.389994 -7.269866 1.212436 0 0 0
33 1 -5.671993 -5.671993 1.212436 0 0 0
34 1 -6.570754 -4.600891 1.212436 0 0 0
35 1 -7.748086 -2.076093 1.212436 0 0 0
36 1 -7.990885 -0.699112 1.212436 0 0 0
54 1 -1.392903 -7.899546 2.424871 0 0 0
55 1 -4.010705 -6.946744 2.424871 0 0 0
56 1 -5.156062 -6.144756 2.424871 0 0 0
57 1 -6.946744 -4.010705 2.424871 0 0 0
58 1 -7.537659 -2.743484 2.424871 0 0 0
77 1 -2.076093 -7.748086 3.637307 0 0 0
78 1 -3.389994 -7.269866 3.637307 0 0 0
79 1 -5.671993 -5.671993 3.637307 0 0 0
80 1 -6.570754 -4.600891 3.637307 0 0 0
81 1 -7.748086 -2.076093 3.637307 0 0 0
82 1 -7.990885 -0.699112 3.637307 0 0 0
100 1 -1.392903 -7.899546 4.849742 0 0 0
101 1 -4.010705 -6.946744 4.849742 0 0 0
102 1 -5.156062 -6.144756 4.849742 0 0 0
103 1 -6.946744 -4.010705 4.849742 0 0 0
104 1 -7.537659 -2.743484 4.849742 0 0 0
123 1 -2.076093 -7.748086 6.062178 0 0 0
124 1 -3.389994 -7.269866 6.062178 0 0 0
125 1 -5.671993 -5.671993 6.062178 0 0 0
126 1 -6.570754 -4.600891 6.062178 0 0 0
127 1 -7.748086 -2.076093 6.062178 0 0 0
128 1 -7.990885 -0.699112 6.062178 0 0 0
146 1 -1.392903 -7.899546 7.274613 0 0 0
147 1 -4.010705 -6.946744 7.274613 0 0 0
148 1 -5.156062 -6.144756 7.274613 0 0 0
149 1 -6.946744 -4.010705 7.274613 0 0 0
150 1 -7.537659 -2.743484 7.274613 0 0 0
169 1 -2.076093 -7.748086 8.487049 0 0 0
170 1 -3.389994 -7.269866 8.487049 0 0 0
171 1 -5.671993 -5.671993 8.487049 0 0 0
172 1 -6.570754 -4.600891 8.487049 0 0 0
173 1 -7.748086 -2.076093 8.487049 0 0 0
174 1 -7.990885 -0.699112 8.487049 0 0 0
193 1 -4.010705 -6.946744 9.699485 0 0 0
194 1 -5.156062 -6.144756 9.699485 0 0 0
195 1 -6.946744 -4.010705 9.699485 0 0 0
196 1 -7.537659 -2.743484 9.699485 0 0 0
216 1 -1.392903 -7.899546 9.699485 0 0 0
217 1 -5.671993 -5.671993 10.91192 0 0 0
218 1 -6.570754 -4.600891 10.91192 0 0 0
219 1 -7.748086 -2.076093 10.91192 0 0 0
220 1 -7.990885 -0.699112 10.91192 0 0 0
239 1 -2.076093 -7.748086 10.91192 0 0 0
240 1 -3.389994 -7.269866 10.91192 0 0 0
241 1 -6.946744 -4.010705 12.124356 0 0 0
242 1 -7.537659 -2.743484 12.124356 0 0 0
262 1 -1.392903 -7.899546 12.124356 0 0 0
263 1 -4.010705 -6.946744 12.124356 0 0 0
264 1 -5.156062 -6.144756 12.124356 0 0 0
265 1 -7.748086 -2.076093 13.336791 0 0 0
266 1 -7.990885 -0.699112 13.336791 0 0 0
285 1 -2.076093 -7.748086 13.336791 0 0 0
286 1 -3.389994 -7.269866 13.336791 0 0 0
287 1 -5.671993 -5.671993 13.336791 0 0 0
288 1 -6.570754 -4.600891 13.336791 0 0 0
308 1 -1.392903 -7.899546 14.549227 0 0 0
309 1 -4.010705 -6.946744 14.549227 0 0 0
310 1 -5.156062 -6.144756 14.549227 0 0 0
311 1 -6.946744 -4.010705 14.549227 0 0 0
312 1 -7.537659 -2.743484 14.549227 0 0 0
331 1 -2.076093 -7.748086 15.761662 0 0 0
332 1 -3.389994 -7.269866 15.761662 0 0 0
333 1 -5.671993 -5.671993 15.761662 0 0 0
334 1 -6.570754 -4.600891 15.761662 0 0 0
335 1 -7.748086 -2.076093 15.761662 0 0 0
336 1 -7.990885 -0.699112 15.761662 0 0 0
354 1 -1.392903 -7.899546 16.974098 0 0 0
355 1 -4.010705 -6.946744 16.974098 0 0 0
356 1 -5.156062 -6.144756 16.974098 0 0 0
357 1 -6.946744 -4.010705 16.974098 0 0 0
358 1 -7.537659 -2.743484 16.974098 0 0 0
377 1 -2.076093 -7.748086 18.186533 0 0 0
378 1 -3.389994 -7.269866 18.186533 0 0 0
379 1 -5.671993 -5.671993 18.186533 0 0 0
380 1 -6.570754 -4.600891 18.186533 0 0 0
381 1 -7.748086 -2.076093 18.186533 0 0 0
382 1 -7.990885 -0.699112 18.186533 0 0 0
400 1 -1.392903 -7.899546 19.398969 0 0 0
401 1 -4.010705 -6.946744 19.398969 0 0 0
402 1 -5.156062 -6.144756 19.398969 0 0 0
403 1 -6.946744 -4.010705 19.398969 0 0 0
404 1 -7.537659 -2.743484 19.398969 0 0 0
423 1 -2.076093 -7.748086 20.611405 0 0 0
424 1 -3.389994 -7.269866 20.611405 0 0 0
425 1 -5.671993 -5.671993 20.611405 0 0 0
426 1 -6.570754 -4.600891 20.611405 0 0 0
427 1 -7.748086 -2.076093 20.611405 0 0 0
428 1 -7.990885 -0.699112 20.611405 0 0 0
446 1 -1.392903 -7.899546 21.82384 0 0 0
447 1 -4.010705 -6.946744 21.82384 0 0 0
448 1 -5.156062 -6.144756 21.82384 0 0 0
449 1 -6.946744 -4.010705 21.82384 0 0 0
450 1 -7.537659 -2.743484 21.82384 0 0 0
469 1 -2.076093 -7.748086 23.036276 0 0 0
470 1 -3.389994 -7.269866 23.036276 0 0 0
471 1 -5.671993 -5.671993 23.036276 0 0 0
472 1 -6.570754 -4.600891 23.036276 0 0 0
473 1 -7.748086 -2.076093 23.036276 0 0 0
474 1 -7.990885 -0.699112 23.036276 0 0 0
492 1 -1.392903 -7.899546 24.248711 0 0 0
493 1 -4.010705 -6.946744 24.248711 0 0 0
494 1 -5.156062 -6.144756 24.248711 0 0 0
495 1 -6.946744 -4.010705 24.248711 0 0 0
496 1 -7.537659 -2.743484 24.248711 0 0 0
515 1 -2.076093 -7.748086 25.461147 0 0 0
516 1 -3.389994 -7.269866 25.461147 0 0 0
517 1 -5.671993 -5.671993 25.461147 0 0 0
518 1 -6.570754 -4.600891 25.461147 0 0 0
519 1 -7.748086 -2.076093 25.461147 0 0 0
520 1 -7.990885 -0.699112 25.461147 0 0 0
538 1 -1.392903 -7.899546 26.673582 0 0 0
539 1 -4.010705 -6.946744 26.673582 0 0 0
540 1 -5.156062 -6.144756 26.673582 0 0 0
541 1 -6.946744 -4.010705 26.673582 0 0 0
542 1 -7.537659 -2.743484 26.673582 0 0 0
561 1 -2.076093 -7.748086 27.886018 0 0 0
562 1 -3.389994 -7.269866 27.886018 0 0 0
563 1 -5.671993 -5.671993 27.886018 0 0 0
564 1 -6.570754 -4.600891 27.886018 0 0 0
565 1 -7.748086 -2.076093 27.886018 0 0 0
566 1 -7.990885 -0.699112 27.886018 0 0 0
584 1 -1.392903 -7.899546 29.098454 0 0 0
585 1 -4.010705 -6.946744 29.098454 0 0 0
586 1 -5.156062 -6.144756 29.098454 0 0 0
587 1 -6.946744 -4.010705 29.098454 0 0 0
588 1 -7.537659 -2.743484 29.098454 0 0 0
607 1 -2.076093 -7.748086 30.310889 0 0 0
608 1 -3.389994 -7.269866 30.310889 0 0 0
609 1 -5.671993 -5.671993 30.310889 0 0 0
610 1 -6.570754 -4.600891 30.310889 0 0 0
611 1 -7.748086 -2.076093 30.310889 0 0 0
612 1 -7.990885 -0.699112 30.310889 0 0 0
630 1 -1.392903 -7.899546 31.523325 0 0 0
631 1 -4.010705 -6.946744 31.523325 0 0 0
632 1 -5.156062 -6.144756 31.523325 0 0 0
633 1 -6.946744 -4.010705 31.523325 0 0 0
634 1 -7.537659 -2.743484 31.523325 0 0 0
653 1 -2.076093 -7.748086 32.73576 0 0 0
654 1 -3.389994 -7.269866 32.73576 0 0 0
655 1 -5.671993 -5.671993 32.73576 0 0 0
656 1 -6.570754 -4.600891 32.73576 0 0 0
657 1 -7.748086 -2.076093 32.73576 0 0 0
658 1 -7.990885 -0.699112 32.73576 0 0 0
676 1 -1.392903 -7.899546 33.948196 0 0 0
677 1 -4.010705 -6.946744 33.948196 0 0 0
678 1 -5.156062 -6.144756 33.948196 0 0 0
679 1 -6.946744 -4.010705 33.948196 0 0 0
680 1 -7.537659 -2.743484 33.948196 0 0 0
699 1 -2.076093 -7.748086 35.160631 0 0 0
700 1 -3.389994 -7.269866 35.160631 0 0 0
701 1 -5.671993 -5.671993 35.160631 0 0 0
702 1 -6.570754 -4.600891 35.160631 0 0 0
703 1 -7.748086 -2.076093 35.160631 0 0 0
704 1 -7.990885 -0.699112 35.160631 0 0 0
722 1 -1.392903 -7.899546 36.373067 0 0 0
723 1 -4.010705 -6.946744 36.373067 0 0 0
724 1 -5.156062 -6.144756 36.373067 0 0 0
725 1 -6.946744 -4.010705 36.373067 0 0 0
726 1 -7.537659 -2.743484 36.373067 0 0 0
745 1 -2.076093 -7.748086 37.585503 0 0 0
746 1 -3.389994 -7.269866 37.585503 0 0 0
747 1 -5.671993 -5.671993 37.585503 0 0 0
748 1 -6.570754 -4.600891 37.585503 0 0 0
749 1 -7.748086 -2.076093 37.585503 0 0 0
750 1 -7.990885 -0.699112 37.585503 0 0 0
769 1 -4.010705 -6.946744 38.797938 0 0 0
770 1 -5.156062 -6.144756 38.797938 0 0 0
771 1 -6.946744 -4.010705 38.797938 0 0 0
772 1 -7.537659 -2.743484 38.797938 0 0 0
792 1 -1.392903 -7.899546 38.797938 0 0 0
793 1 -5.671993 -5.671993 40.010374 0 0 0
794 1 -6.570754 -4.600891 40.010374 0 0 0
795 1 -7.748086 -2.076093 40.010374 0 0 0
796 1 -7.990885 -0.699112 40.010374 0 0 0
815 1 -2.076093 -7.748086 40.010374 0 0 0
816 1 -3.389994 -7.269866 40.010374 0 0 0
817 1 -6.946744 -4.010705 41.222809 0 0 0
818 1 -7.537659 -2.743484 41.222809 0 0 0
838 1 -1.392903 -7.899546 41.222809 0 0 0
839 1 -4.010705 -6.946744 41.222809 0 0 0
840 1 -5.156062 -6.144756 41.222809 0 0 0
841 1 -7.748086 -2.076093 42.435245 0 0 0
842 1 -7.990885 -0.699112 42.435245 0 0 0
861 1 -2.076093 -7.748086 42.435245 0 0 0
862 1 -3.389994 -7.269866 42.435245 0 0 0
863 1 -5.671993 -5.671993 42.435245 0 0 0
864 1 -6.570754 -4.600891 42.435245 0 0 0
884 1 -1.392903 -7.899546 43.64768 0 0 0
885 1 -4.010705 -6.946744 43.64768 0 0 0
886 1 -5.156062 -6.144756 43.64768 0 0 0
887 1 -6.946744 -4.010705 43.64768 0 0 0
888 1 -7.537659 -2.743484 43.64768 0 0 0
907 1 -2.076093 -7.748086 44.860116 0 0 0
908 1 -3.389994 -7.269866 44.860116 0 0 0
909 1 -5.671993 -5.671993 44.860116 0 0 0
910 1 -6.570754 -4.600891 44.860116 0 0 0
911 1 -7.748086 -2.076093 44.860116 0 0 0
912 1 -7.990885 -0.699112 44.860116 0 0 0
930 1 -1.392903 -7.899546 46.072551 0 0 0
931 1 -4.010705 -6.946744 46.072551 0 0 0
932 1 -5.156062 -6.144756 46.072551 0 0 0
933 1 -6.946744 -4.010705 46.072551 0 0 0
934 1 -7.537659 -2.743484 46.072551 0 0 0
953 1 -2.076093 -7.748086 47.284987 0 0 0
954 1 -3.389994 -7.269866 47.284987 0 0 0
955 1 -5.671993 -5.671993 47.284987 0 0 0
956 1 -6.570754 -4.600891 47.284987 0 0 0
957 1 -7.748086 -2.076093 47.284987 0 0 0
958 1 -7.990885 -0.699112 47.284987 0 0 0
963 2 -1.719138 -0.315585 3.176333 0 0 0
977 2 -5.088038 -0.828285 2.603933 0 0 0
979 2 -3.842638 -1.030985 3.182233 0 0 0
985 2 -3.488538 -2.919085 1.744933 0 0 0
986 2 -4.740738 -2.718185 1.172133 0 0 0
987 2 -3.037038 -2.074185 2.753733 0 0 0
988 2 -5.546338 -1.670785 1.602633 0 0 0
989 2 -6.257938 -0.919885 0.678533 0 0 0
990 2 -4.652038 -3.011885 -0.181267 0 0 0
991 2 -5.351938 -2.249685 -1.108567 0 0 0
992 2 -6.162038 -1.200685 -0.679367 0 0 0
993 2 -0.861338 -2.061085 1.744233 0 0 0
994 2 -1.308238 -2.906685 0.737733 0 0 0
995 2 -1.719238 -1.642385 2.751933 0 0 0
996 2 -2.629938 -3.338485 0.738633 0 0 0
997 2 -3.341738 -3.396185 -0.450967 0 0 0
998 2 -0.708838 -2.530785 -0.455567 0 0 0
999 2 -1.418738 -2.577585 -1.649567 0 0 0
1000 2 -2.741738 -3.011185 -1.644667 0 0 0
1002 2 -4.745738 -1.875185 -2.299867 0 0 0
1007 2 -6.063338 -0.168685 -1.602267 0 0 0
1019 2 -0.479338 -0.468085 -2.308667 0 0 0
1049 3 -0.257938 -0.919885 8.674033 0 0 0
1052 3 -0.162038 -1.200685 7.316133 0 0 0
1067 3 -0.063338 -0.168685 6.393233 0 0 0
1083 2 -1.719138 -0.315585 19.167332 0 0 0
1097 2 -5.088038 -0.828285 18.594932 0 0 0
1099 2 -3.842638 -1.030985 19.173232 0 0 0
1105 2 -3.488538 -2.919085 17.735932 0 0 0
1106 2 -4.740738 -2.718185 17.163132 0 0 0
1107 2 -3.037038 -2.074185 18.744732 0 0 0
1108 2 -5.546338 -1.670785 17.593632 0 0 0
1109 2 -6.257938 -0.919885 16.669532 0 0 0
1110 2 -4.652038 -3.011885 15.809732 0 0 0
1111 2 -5.351938 -2.249685 14.882432 0 0 0
1112 2 -6.162038 -1.200685 15.311632 0 0 0
1113 2 -0.861338 -2.061085 17.735232 0 0 0
1114 2 -1.308238 -2.906685 16.728732 0 0 0
1115 2 -1.719238 -1.642385 18.742932 0 0 0
1116 2 -2.629938 -3.338485 16.729632 0 0 0
1117 2 -3.341738 -3.396185 15.540032 0 0 0
1118 2 -0.708838 -2.530785 15.535432 0 0 0
1119 2 -1.418738 -2.577585 14.341432 0 0 0
1120 2 -2.741738 -3.011185 14.346332 0 0 0
1121 2 -5.180538 -0.584085 13.401532 0 0 0
1122 2 -4.745738 -1.875185 13.691132 0 0 0
1123 2 -3.436238 -2.252685 13.414932 0 0 0
1127 2 -6.063338 -0.168685 14.388732 0 0 0
1137 2 -2.551638 -1.355285 12.833332 0 0 0
1138 2 -1.299438 -1.554285 13.408632 0 0 0
1139 2 -0.479338 -0.468085 13.682332 0 0 0
1140 2 -2.975938 -0.070285 12.540932 0 0 0
1169 3 -0.257938 -0.919885 24.665032 0 0 0
1172 3 -0.162038 -1.200685 23.307132 0 0 0
1187 3 -0.063338 -0.168685 22.384232 0 0 0
1203 2 -1.719138 -0.315585 35.158332 0 0 0
1217 2 -5.088038 -0.828285 34.585932 0 0 0
1219 2 -3.842638 -1.030985 35.164232 0 0 0
1225 2 -3.488538 -2.919085 33.726932 0 0 0
1226 2 -4.740738 -2.718185 33.154132 0 0 0
1227 2 -3.037038 -2.074185 34.735732 0 0 0
1228 2 -5.546338 -1.670785 33.584632 0 0 0
1229 2 -6.257938 -0.919885 32.660532 0 0 0
1230 2 -4.652038 -3.011885 31.800732 0 0 0
1231 2 -5.351938 -2.249685 30.873432 0 0 0
1232 2 -6.162038 -1.200685 31.302632 0 0 0
1233 2 -0.861338 -2.061085 33.726232 0 0 0
1234 2 -1.308238 -2.906685 32.719732 0 0 0
1235 2 -1.719238 -1.642385 34.733932 0 0 0
1236 2 -2.629938 -3.338485 32.720632 0 0 0
1237 2 -3.341738 -3.396185 31.531032 0 0 0
1238 2 -0.708838 -2.530785 31.526432 0 0 0
1239 2 -1.418738 -2.577585 30.332432 0 0 0
1240 2 -2.741738 -3.011185 30.337332 0 0 0
1241 2 -5.180538 -0.584085 29.392532 0 0 0
1242 2 -4.745738 -1.875185 29.682132 0 0 0
1243 2 -3.436238 -2.252685 29.405932 0 0 0
1247 2 -6.063338 -0.168685 30.379732 0 0 0
1257 2 -2.551638 -1.355285 28.824332 0 0 0
1258 2 -1.299438 -1.554285 29.399632 0 0 0
1259 2 -0.479338 -0.468085 29.673332 0 0 0
1260 2 -2.975938 -0.070285 28.531932 0 0 0
1289 3 -0.257938 -0.919885 40.656031 0 0 0
1292 3 -0.162038 -1.200685 39.298131 0 0 0
1307 3 -0.063338 -0.168685 38.375231 0 0 0
1328 1 -1.392903 -7.899546 48.497423 0 0 0
1329 1 -4.010705 -6.946744 48.497423 0 0 0
1330 1 -5.156062 -6.144756 48.497423 0 0 0
1331 1 -6.946744 -4.010705 48.497423 0 0 0
1332 1 -7.537659 -2.743484 48.497423 0 0 0
1351 1 -2.076093 -7.748086 49.709858999999994 0 0 0
1352 1 -3.389994 -7.269866 49.709858999999994 0 0 0
1353 1 -5.671993 -5.671993 49.709858999999994 0 0 0
1354 1 -6.570754 -4.600891 49.709858999999994 0 0 0
1355 1 -7.748086 -2.076093 49.709858999999994 0 0 0
1356 1 -7.990885 -0.699112 49.709858999999994 0 0 0
1374 1 -1.392903 -7.899546 50.922294 0 0 0
1375 1 -4.010705 -6.946744 50.922294 0 0 0
1376 1 -5.156062 -6.144756 50.922294 0 0 0
1377 1 -6.946744 -4.010705 50.922294 0 0 0
1378 1 -7.537659 -2.743484 50.922294 0 0 0
1397 1 -2.076093 -7.748086 52.13473 0 0 0
1398 1 -3.389994 -7.269866 52.13473 0 0 0
1399 1 -5.671993 -5.671993 52.13473 0 0 0
1400 1 -6.570754 -4.600891 52.13473 0 0 0
1401 1 -7.748086 -2.076093 52.13473 0 0 0
1402 1 -7.990885 -0.699112 52.13473 0 0 0
1420 1 -1.392903 -7.899546 53.347165 0 0 0
1421 1 -4.010705 -6.946744 53.347165 0 0 0
1422 1 -5.156062 -6.144756 53.347165 0 0 0
1423 1 -6.946744 -4.010705 53.347165 0 0 0
1424 1 -7.537659 -2.743484 53.347165 0 0 0
1443 1 -2.076093 -7.748086 54.559601 0 0 0
1444 1 -3.389994 -7.269866 54.559601 0 0 0
1445 1 -5.671993 -5.671993 54.559601 0 0 0
1446 1 -6.570754 -4.600891 54.559601 0 0 0
1447 1 -7.748086 -2.076093 54.559601 0 0 0
1448 1 -7.990885 -0.699112 54.559601 0 0 0
1466 1 -1.392903 -7.899546 55.772036 0 0 0
1467 1 -4.010705 -6.946744 55.772036 0 0 0
1468 1 -5.156062 -6.144756 55.772036 0 0 0
1469 1 -6.946744 -4.010705 55.772036 0 0 0
1470 1 -7.537659 -2.743484 55.772036 0 0 0
1489 1 -2.076093 -7.748086 56.984472 0 0 0
1490 1 -3.389994 -7.269866 56.984472 0 0 0
1491 1 -5.671993 -5.671993 56.984472 0 0 0
1492 1 -6.570754 -4.600891 56.984472 0 0 0
1493 1 -7.748086 -2.076093 56.984472 0 0 0
1494 1 -7.990885 -0.699112 56.984472 0 0 0
1513 1 -4.010705 -6.946744 58.19690799999999 0 0 0
1514 1 -5.156062 -6.144756 58.19690799999999 0 0 0
1515 1 -6.946744 -4.010705 58.19690799999999 0 0 0
1516 1 -7.537659 -2.743484 58.19690799999999 0 0 0
1536 1 -1.392903 -7.899546 58.19690799999999 0 0 0
1537 1 -5.671993 -5.671993 59.409343 0 0 0
1538 1 -6.570754 -4.600891 59.409343 0 0 0
1539 1 -7.748086 -2.076093 59.409343 0 0 0
1540 1 -7.990885 -0.699112 59.409343 0 0 0
1559 1 -2.076093 -7.748086 59.409343 0 0 0
1560 1 -3.389994 -7.269866 59.409343 0 0 0
1561 1 -6.946744 -4.010705 60.621779 0 0 0
1562 1 -7.537659 -2.743484 60.621779 0 0 0
1582 1 -1.392903 -7.899546 60.621779 0 0 0
1583 1 -4.010705 -6.946744 60.621779 0 0 0
1584 1 -5.156062 -6.144756 60.621779 0 0 0
1585 1 -7.748086 -2.076093 61.834213999999996 0 0 0
1586 1 -7.990885 -0.699112 61.834213999999996 0 0 0
1605 1 -2.076093 -7.748086 61.834213999999996 0 0 0
1606 1 -3.389994 -7.269866 61.834213999999996 0 0 0
1607 1 -5.671993 -5.671993 61.834213999999996 0 0 0
1608 1 -6.570754 -4.600891 61.834213999999996 0 0 0
1628 1 -1.392903 -7.899546 63.04665 0 0 0
1629 1 -4.010705 -6.946744 63.04665 0 0 0
1630 1 -5.156062 -6.144756 63.04665 0 0 0
1631 1 -6.946744 -4.010705 63.04665 0 0 0
1632 1 -7.537659 -2.743484 63.04665 0 0 0
1651 1 -2.076093 -7.748086 64.259085 0 0 0
1652 1 -3.389994 -7.269866 64.259085 0 0 0
1653 1 -5.671993 -5.671993 64.259085 0 0 0
1654 1 -6.570754 -4.600891 64.259085 0 0 0
1655 1 -7.748086 -2.076093 64.259085 0 0 0
1656 1 -7.990885 -0.699112 64.259085 0 0 0
1674 1 -1.392903 -7.899546 65.471521 0 0 0
1675 1 -4.010705 -6.946744 65.471521 0 0 0
1676 1 -5.156062 -6.144756 65.471521 0 0 0
1677 1 -6.946744 -4.010705 65.471521 0 0 0
1678 1 -7.537659 -2.743484 65.471521 0 0 0
1697 1 -2.076093 -7.748086 66.683956 0 0 0
1698 1 -3.389994 -7.269866 66.683956 0 0 0
1699 1 -5.671993 -5.671993 66.683956 0 0 0
1700 1 -6.570754 -4.600891 66.683956 0 0 0
1701 1 -7.748086 -2.076093 66.683956 0 0 0
1702 1 -7.990885 -0.699112 66.683956 0 0 0
1720 1 -1.392903 -7.899546 67.89639199999999 0 0 0
1721 1 -4.010705 -6.946744 67.89639199999999 0 0 0
1722 1 -5.156062 -6.144756 67.89639199999999 0 0 0
1723 1 -6.946744 -4.010705 67.89639199999999 0 0 0
1724 1 -7.537659 -2.743484 67.89639199999999 0 0 0
1743 1 -2.076093 -7.748086 69.108828 0 0 0
1744 1 -3.389994 -7.269866 69.108828 0 0 0
1745 1 -5.671993 -5.671993 69.108828 0 0 0
1746 1 -6.570754 -4.600891 69.108828 0 0 0
1747 1 -7.748086 -2.076093 69.108828 0 0 0
1748 1 -7.990885 -0.699112 69.108828 0 0 0
1766 1 -1.392903 -7.899546 70.321263 0 0 0
1767 1 -4.010705 -6.946744 70.321263 0 0 0
1768 1 -5.156062 -6.144756 70.321263 0 0 0
1769 1 -6.946744 -4.010705 70.321263 0 0 0
1770 1 -7.537659 -2.743484 70.321263 0 0 0
1789 1 -2.076093 -7.748086 71.533699 0 0 0
1790 1 -3.389994 -7.269866 71.533699 0 0 0
1791 1 -5.671993 -5.671993 71.533699 0 0 0
1792 1 -6.570754 -4.600891 71.533699 0 0 0
1793 1 -7.748086 -2.076093 71.533699 0 0 0
1794 1 -7.990885 -0.699112 71.533699 0 0 0
1812 1 -1.392903 -7.899546 72.746134 0 0 0
1813 1 -4.010705 -6.946744 72.746134 0 0 0
1814 1 -5.156062 -6.144756 72.746134 0 0 0
1815 1 -6.946744 -4.010705 72.746134 0 0 0
1816 1 -7.537659 -2.743484 72.746134 0 0 0
1835 1 -2.076093 -7.748086 73.95857 0 0 0
1836 1 -3.389994 -7.269866 73.95857 0 0 0
1837 1 -5.671993 -5.671993 73.95857 0 0 0
1838 1 -6.570754 -4.600891 73.95857 0 0 0
1839 1 -7.748086 -2.076093 73.95857 0 0 0
1840 1 -7.990885 -0.699112 73.95857 0 0 0
1858 1 -1.392903 -7.899546 75.171005 0 0 0
1859 1 -4.010705 -6.946744 75.171005 0 0 0
1860 1 -5.156062 -6.144756 75.171005 0 0 0
1861 1 -6.946744 -4.010705 75.171005 0 0 0
1862 1 -7.537659 -2.743484 75.171005 0 0 0
1881 1 -2.076093 -7.748086 76.383441 0 0 0
1882 1 -3.389994 -7.269866 76.383441 0 0 0
1883 1 -5.671993 -5.671993 76.383441 0 0 0
1884 1 -6.570754 -4.600891 76.383441 0 0 0
1885 1 -7.748086 -2.076093 76.383441 0 0 0
1886 1 -7.990885 -0.699112 76.383441 0 0 0
1904 1 -1.392903 -7.899546 77.595877 0 0 0
1905 1 -4.010705 -6.946744 77.595877 0 0 0
1906 1 -5.156062 -6.144756 77.595877 0 0 0
1907 1 -6.946744 -4.010705 77.595877 0 0 0
1908 1 -7.537659 -2.743484 77.595877 0 0 0
1927 1 -2.076093 -7.748086 78.808312 0 0 0
1928 1 -3.389994 -7.269866 78.808312 0 0 0
1929 1 -5.671993 -5.671993 78.808312 0 0 0
1930 1 -6.570754 -4.600891 78.808312 0 0 0
1931 1 -7.748086 -2.076093 78.808312 0 0 0
1932 1 -7.990885 -0.699112 78.808312 0 0 0
1950 1 -1.392903 -7.899546 80.020748 0 0 0
1951 1 -4.010705 -6.946744 80.020748 0 0 0
1952 1 -5.156062 -6.144756 80.020748 0 0 0
1953 1 -6.946744 -4.010705 80.020748 0 0 0
1954 1 -7.537659 -2.743484 80.020748 0 0 0
1973 1 -2.076093 -7.748086 81.233183 0 0 0
1974 1 -3.389994 -7.269866 81.233183 0 0 0
1975 1 -5.671993 -5.671993 81.233183 0 0 0
1976 1 -6.570754 -4.600891 81.233183 0 0 0
1977 1 -7.748086 -2.076093 81.233183 0 0 0
1978 1 -7.990885 -0.699112 81.233183 0 0 0
1996 1 -1.392903 -7.899546 82.445619 0 0 0
1997 1 -4.010705 -6.946744 82.445619 0 0 0
1998 1 -5.156062 -6.144756 82.445619 0 0 0
1999 1 -6.946744 -4.010705 82.445619 0 0 0
2000 1 -7.537659 -2.743484 82.445619 0 0 0
2019 1 -2.076093 -7.748086 83.65805399999999 0 0 0
2020 1 -3.389994 -7.269866 83.65805399999999 0 0 0
2021 1 -5.671993 -5.671993 83.65805399999999 0 0 0
2022 1 -6.570754 -4.600891 83.65805399999999 0 0 0
2023 1 -7.748086 -2.076093 83.65805399999999 0 0 0
2024 1 -7.990885 -0.699112 83.65805399999999 0 0 0
2042 1 -1.392903 -7.899546 84.87048999999999 0 0 0
2043 1 -4.010705 -6.946744 84.87048999999999 0 0 0
2044 1 -5.156062 -6.144756 84.87048999999999 0 0 0
2045 1 -6.946744 -4.010705 84.87048999999999 0 0 0
2046 1 -7.537659 -2.743484 84.87048999999999 0 0 0
2065 1 -2.076093 -7.748086 86.082926 0 0 0
2066 1 -3.389994 -7.269866 86.082926 0 0 0
2067 1 -5.671993 -5.671993 86.082926 0 0 0
2068 1 -6.570754 -4.600891 86.082926 0 0 0
2069 1 -7.748086 -2.076093 86.082926 0 0 0
2070 1 -7.990885 -0.699112 86.082926 0 0 0
2089 1 -4.010705 -6.946744 87.295361 0 0 0
2090 1 -5.156062 -6.144756 87.295361 0 0 0
2091 1 -6.946744 -4.010705 87.295361 0 0 0
2092 1 -7.537659 -2.743484 87.295361 0 0 0
2112 1 -1.392903 -7.899546 87.295361 0 0 0
2113 1 -5.671993 -5.671993 88.507797 0 0 0
2114 1 -6.570754 -4.600891 88.507797 0 0 0
2115 1 -7.748086 -2.076093 88.507797 0 0 0
2116 1 -7.990885 -0.699112 88.507797 0 0 0
2135 1 -2.076093 -7.748086 88.507797 0 0 0
2136 1 -3.389994 -7.269866 88.507797 0 0 0
2137 1 -6.946744 -4.010705 89.720232 0 0 0
2138 1 -7.537659 -2.743484 89.720232 0 0 0
2158 1 -1.392903 -7.899546 89.720232 0 0 0
2159 1 -4.010705 -6.946744 89.720232 0 0 0
2160 1 -5.156062 -6.144756 89.720232 0 0 0
2161 1 -7.748086 -2.076093 90.932668 0 0 0
2162 1 -7.990885 -0.699112 90.932668 0 0 0
2181 1 -2.076093 -7.748086 90.932668 0 0 0
2182 1 -3.389994 -7.269866 90.932668 0 0 0
2183 1 -5.671993 -5.671993 90.932668 0 0 0
2184 1 -6.570754 -4.600891 90.932668 0 0 0
2204 1 -1.392903 -7.899546 92.145103 0 0 0
2205 1 -4.010705 -6.946744 92.145103 0 0 0
2206 1 -5.156062 -6.144756 92.145103 0 0 0
2207 1 -6.946744 -4.010705 92.145103 0 0 0
2208 1 -7.537659 -2.743484 92.145103 0 0 0
2227 1 -2.076093 -7.748086 93.357539 0 0 0
2228 1 -3.389994 -7.269866 93.357539 0 0 0
2229 1 -5.671993 -5.671993 93.357539 0 0 0
2230 1 -6.570754 -4.600891 93.357539 0 0 0
2231 1 -7.748086 -2.076093 93.357539 0 0 0
2232 1 -7.990885 -0.699112 93.357539 0 0 0
2250 1 -1.392903 -7.899546 94.569974 0 0 0
2251 1 -4.010705 -6.946744 94.569974 0 0 0
2252 1 -5.156062 -6.144756 94.569974 0 0 0
2253 1 -6.946744 -4.010705 94.569974 0 0 0
2254 1 -7.537659 -2.743484 94.569974 0 0 0
2273 1 -2.076093 -7.748086 95.78241 0 0 0
2274 1 -3.389994 -7.269866 95.78241 0 0 0
2275 1 -5.671993 -5.671993 95.78241 0 0 0
2276 1 -6.570754 -4.600891 95.78241 0 0 0
2277 1 -7.748086 -2.076093 95.78241 0 0 0
2278 1 -7.990885 -0.699112 95.78241 0 0 0
2283 2 -1.719138 -0.315585 51.673756 0 0 0
2297 2 -5.088038 -0.828285 51.101355999999996 0 0 0
2299 2 -3.842638 -1.030985 51.679655999999994 0 0 0
2305 2 -3.488538 -2.919085 50.242356 0 0 0
2306 2 -4.740738 -2.718185 49.669556 0 0 0
2307 2 -3.037038 -2.074185 51.251155999999995 0 0 0
2308 2 -5.546338 -1.670785 50.100055999999995 0 0 0
2309 2 -6.257938 -0.919885 49.175956 0 0 0
2310 2 -4.652038 -3.011885 48.316156 0 0 0
2311 2 -5.351938 -2.249685 47.388856 0 0 0
2312 2 -6.162038 -1.200685 47.818056 0 0 0
2313 2 -0.861338 -2.061085 50.241656 0 0 0
2314 2 -1.308238 -2.906685 49.235155999999996 0 0 0
2315 2 -1.719238 -1.642385 51.249356 0 0 0
2316 2 -2.629938 -3.338485 49.236056 0 0 0
2317 2 -3.341738 -3.396185 48.046456 0 0 0
2318 2 -0.708838 -2.530785 48.041855999999996 0 0 0
2319 2 -1.418738 -2.577585 46.847856 0 0 0
2320 2 -2.741738 -3.011185 46.852756 0 0 0
2321 2 -5.180538 -0.584085 45.907956 0 0 0
2322 2 -4.745738 -1.875185 46.197556 0 0 0
2323 2 -3.436238 -2.252685 45.921355999999996 0 0 0
2327 2 -6.063338 -0.168685 46.895156 0 0 0
2337 2 -2.551638 -1.355285 45.339755999999994 0 0 0
2338 2 -1.299438 -1.554285 45.915056 0 0 0
2339 2 -0.479338 -0.468085 46.188756 0 0 0
2340 2 -2.975938 -0.070285 45.047356 0 0 0
2369 3 -0.257938 -0.919885 57.171456 0 0 0
2372 3 -0.162038 -1.200685 55.813556 0 0 0
2387 3 -0.063338 -0.168685 54.890656 0 0 0
2403 2 -1.719138 -0.315585 67.664755 0 0 0
2417 2 -5.088038 -0.828285 67.092355 0 0 0
2419 2 -3.842638 -1.030985 67.670655 0 0 0
2425 2 -3.488538 -2.919085 66.23335499999999 0 0 0
2426 2 -4.740738 -2.718185 65.660555 0 0 0
2427 2 -3.037038 -2.074185 67.242155 0 0 0
2428 2 -5.546338 -1.670785 66.091055 0 0 0
2429 2 -6.257938 -0.919885 65.166955 0 0 0
2430 2 -4.652038 -3.011885 64.307155 0 0 0
2431 2 -5.351938 -2.249685 63.379855 0 0 0
2432 2 -6.162038 -1.200685 63.809055 0 0 0
2433 2 -0.861338 -2.061085 66.232655 0 0 0
2434 2 -1.308238 -2.906685 65.226155 0 0 0
2435 2 -1.719238 -1.642385 67.240355 0 0 0
2436 2 -2.629938 -3.338485 65.227055 0 0 0
2437 2 -3.341738 -3.396185 64.037455 0 0 0
2438 2 -0.708838 -2.530785 64.032855 0 0 0
2439 2 -1.418738 -2.577585 62.838854999999995 0 0 0
2440 2 -2.741738 -3.011185 62.843755 0 0 0
2441 2 -5.180538 -0.584085 61.898955 0 0 0
2442 2 -4.745738 -1.875185 62.188554999999994 0 0 0
2443 2 -3.436238 -2.252685 61.912355 0 0 0
2447 2 -6.063338 -0.168685 62.886154999999995 0 0 0
2457 2 -2.551638 -1.355285 61.330754999999996 0 0 0
2458 2 -1.299438 -1.554285 61.906054999999995 0 0 0
2459 2 -0.479338 -0.468085 62.179755 0 0 0
2460 2 -2.975938 -0.070285 61.038354999999996 0 0 0
2489 3 -0.257938 -0.919885 73.162455 0 0 0
2492 3 -0.162038 -1.200685 71.804555 0 0 0
2507 3 -0.063338 -0.168685 70.881655 0 0 0
2523 2 -1.719138 -0.315585 83.655755 0 0 0
2537 2 -5.088038 -0.828285 83.083355 0 0 0
2539 2 -3.842638 -1.030985 83.661655 0 0 0
2545 2 -3.488538 -2.919085 82.224355 0 0 0
2546 2 -4.740738 -2.718185 81.651555 0 0 0
2547 2 -3.037038 -2.074185 83.233155 0 0 0
2548 2 -5.546338 -1.670785 82.082055 0 0 0
2549 2 -6.257938 -0.919885 81.157955 0 0 0
2550 2 -4.652038 -3.011885 80.298155 0 0 0
2551 2 -5.351938 -2.249685 79.370855 0 0 0
2552 2 -6.162038 -1.200685 79.800055 0 0 0
2553 2 -0.861338 -2.061085 82.22365500000001 0 0 0
2554 2 -1.308238 -2.906685 81.21715499999999 0 0 0
2555 2 -1.719238 -1.642385 83.23135500000001 0 0 0
2556 2 -2.629938 -3.338485 81.21805499999999 0 0 0
2557 2 -3.341738 -3.396185 80.028455 0 0 0
2558 2 -0.708838 -2.530785 80.023855 0 0 0
2559 2 -1.418738 -2.577585 78.829855 0 0 0
2560 2 -2.741738 -3.011185 78.834755 0 0 0
2561 2 -5.180538 -0.584085 77.889955 0 0 0
2562 2 -4.745738 -1.875185 78.179555 0 0 0
2563 2 -3.436238 -2.252685 77.903355 0 0 0
2567 2 -6.063338 -0.168685 78.877155 0 0 0
2577 2 -2.551638 -1.355285 77.321755 0 0 0
2578 2 -1.299438 -1.554285 77.897055 0 0 0
2579 2 -0.479338 -0.468085 78.170755 0 0 0
2580 2 -2.975938 -0.070285 77.029355 0 0 0
2609 3 -0.257938 -0.919885 89.153454 0 0 0
2612 3 -0.162038 -1.200685 87.795554 0 0 0
2627 3 -0.063338 -0.168685 86.872654 0 0 0
2648 1 -1.392903 -7.899546 96.994846 0 0 0
2649 1 -4.010705 -6.946744 96.994846 0 0 0
2650 1 -5.156062 -6.144756 96.994846 0 0 0
2651 1 -6.946744 -4.010705 96.994846 0 0 0
2652 1 -7.537659 -2.743484 96.994846 0 0 0
2671 1 -2.076093 -7.748086 98.20728199999999 0 0 0
2672 1 -3.389994 -7.269866 98.20728199999999 0 0 0
2673 1 -5.671993 -5.671993 98.20728199999999 0 0 0
2674 1 -6.570754 -4.600891 98.20728199999999 0 0 0
2675 1 -7.748086 -2.076093 98.20728199999999 0 0 0
2676 1 -7.990885 -0.699112 98.20728199999999 0 0 0
2694 1 -1.392903 -7.899546 99.41971699999999 0 0 0
2695 1 -4.010705 -6.946744 99.41971699999999 0 0 0
2696 1 -5.156062 -6.144756 99.41971699999999 0 0 0
2697 1 -6.946744 -4.010705 99.41971699999999 0 0 0
2698 1 -7.537659 -2.743484 99.41971699999999 0 0 0
2717 1 -2.076093 -7.748086 100.63215299999999 0 0 0
2718 1 -3.389994 -7.269866 100.63215299999999 0 0 0
2719 1 -5.671993 -5.671993 100.63215299999999 0 0 0
2720 1 -6.570754 -4.600891 100.63215299999999 0 0 0
2721 1 -7.748086 -2.076093 100.63215299999999 0 0 0
2722 1 -7.990885 -0.699112 100.63215299999999 0 0 0
2740 1 -1.392903 -7.899546 101.844588 0 0 0
2741 1 -4.010705 -6.946744 101.844588 0 0 0
2742 1 -5.156062 -6.144756 101.844588 0 0 0
2743 1 -6.946744 -4.010705 101.844588 0 0 0
2744 1 -7.537659 -2.743484 101.844588 0 0 0
2763 1 -2.076093 -7.748086 103.057024 0 0 0
2764 1 -3.389994 -7.269866 103.057024 0 0 0
2765 1 -5.671993 -5.671993 103.057024 0 0 0
2766 1 -6.570754 -4.600891 103.057024 0 0 0
2767 1 -7.748086 -2.076093 103.057024 0 0 0
2768 1 -7.990885 -0.699112 103.057024 0 0 0
2786 1 -1.392903 -7.899546 104.269459 0 0 0
2787 1 -4.010705 -6.946744 104.269459 0 0 0
2788 1 -5.156062 -6.144756 104.269459 0 0 0
2789 1 -6.946744 -4.010705 104.269459 0 0 0
2790 1 -7.537659 -2.743484 104.269459 0 0 0
2809 1 -2.076093 -7.748086 105.481895 0 0 0
2810 1 -3.389994 -7.269866 105.481895 0 0 0
2811 1 -5.671993 -5.671993 105.481895 0 0 0
2812 1 -6.570754 -4.600891 105.481895 0 0 0
2813 1 -7.748086 -2.076093 105.481895 0 0 0
2814 1 -7.990885 -0.699112 105.481895 0 0 0
2833 1 -4.010705 -6.946744 106.69433099999999 0 0 0
2834 1 -5.156062 -6.144756 106.69433099999999 0 0 0
2835 1 -6.946744 -4.010705 106.69433099999999 0 0 0
2836 1 -7.537659 -2.743484 106.69433099999999 0 0 0
2856 1 -1.392903 -7.899546 106.69433099999999 0 0 0
2857 1 -5.671993 -5.671993 107.90676599999999 0 0 0
2858 1 -6.570754 -4.600891 107.90676599999999 0 0 0
2859 1 -7.748086 -2.076093 107.90676599999999 0 0 0
2860 1 -7.990885 -0.699112 107.90676599999999 0 0 0
2879 1 -2.076093 -7.748086 107.90676599999999 0 0 0
2880 1 -3.389994 -7.269866 107.90676599999999 0 0 0
2881 1 -6.946744 -4.010705 109.119202 0 0 0
2882 1 -7.537659 -2.743484 109.119202 0 0 0
2902 1 -1.392903 -7.899546 109.119202 0 0 0
2903 1 -4.010705 -6.946744 109.119202 0 0 0
2904 1 -5.156062 -6.144756 109.119202 0 0 0
2905 1 -7.748086 -2.076093 110.331637 0 0 0
2906 1 -7.990885 -0.699112 110.331637 0 0 0
2925 1 -2.076093 -7.748086 110.331637 0 0 0
2926 1 -3.389994 -7.269866 110.331637 0 0 0
2927 1 -5.671993 -5.671993 110.331637 0 0 0
2928 1 -6.570754 -4.600891 110.331637 0 0 0
2948 1 -1.392903 -7.899546 111.544073 0 0 0
2949 1 -4.010705 -6.946744 111.544073 0 0 0
2950 1 -5.156062 -6.144756 111.544073 0 0 0
2951 1 -6.946744 -4.010705 111.544073 0 0 0