LAMMPS (2 Aug 2023 - Update 3)
OMP_NUM_THREADS environment is not set. Defaulting to 1 thread. (src/comm.cpp:98)
  using 1 OpenMP thread(s) per MPI task

# 1------general---------------
units                             metal      #单位为lammps 中的metel 类型
dimension                    3          #模拟的维度 三维
boundary                    p p p      #周期边界条件
atom_style                  atomic   #原子类型自动
atom_modify              map array sort 100 2.0
neighbor                    3.0 bin
neigh_modify            every 1 delay 0 check yes
#2 -----global variable-------定义全局变量，方便统一修改；
variable temperature equal 300
variable tstep equal 0.001
variable pressure equal 0
variable thermalstep equal 100
variable dumpstep equal 1000
variable relaxtime equal 0
variable totaltime equal 100000
variable deformrate equal 5e-3
#3 -------model------------
#box tilt large
read_data     1.lmp
Reading data file ...
  orthogonal box = (-100 -100 -2.3312511) to (100 100 38.891558)
  3 by 4 by 1 MPI processor grid
  reading atoms ...
  784 atoms
  read_data CPU = 0.552 seconds
group SR type 2
240 atoms in group SR
delete_atoms group SR
Deleted 240 atoms, new total = 544

replicate 1 1 1
Replication is creating a 1x1x1 = 1 times larger system...
  orthogonal box = (-100 -100 -2.3312511) to (100 100 38.891558)
  3 by 4 by 1 MPI processor grid
  544 atoms
  replicate CPU = 0.752 seconds
write_data l.data
System init for write_data ...
WARNING: Communication cutoff is 0.0. No ghost atoms will be generated. Atoms may get lost. (src/comm_brick.cpp:210)

pair_style hybrid airebo 3.0 airebo 3.0  lj/cut 10
pair_coeff * * airebo 1 CH.airebo C NULL
Reading airebo potential file CH.airebo with DATE: 2011-10-25
pair_coeff * * airebo 2 CH.airebo NULL C
Reading airebo potential file CH.airebo with DATE: 2011-10-25
pair_coeff 1 2 lj/cut 0.00456 3.431

# 5------minimize -----------
min_style      sd
minimize       1.0e-4 1.0e-6 100 1000
Neighbor list info ...
  update: every = 1 steps, delay = 0 steps, check = yes
  max neighbors/atom: 2000, page size: 100000
  master list distance cutoff = 13.2
  ghost atom cutoff = 13.2
  binsize = 6.6, bins = 31 31 7
  5 neighbor lists, perpetual/occasional/extra = 5 0 0
  (1) pair airebo, perpetual, skip from (4)
      attributes: full, newton on, ghost
      pair build: skip/ghost
      stencil: none
      bin: none
  (2) pair airebo, perpetual, skip from (4)
      attributes: full, newton on, ghost
      pair build: skip/ghost
      stencil: none
      bin: none
  (3) pair lj/cut, perpetual, skip from (5)
      attributes: half, newton on, cut 13
      pair build: skip
      stencil: none
      bin: none
  (4) neighbor class addition, perpetual
      attributes: full, newton on, ghost
      pair build: full/bin/ghost
      stencil: full/ghost/bin/3d
      bin: standard
  (5) neighbor class addition, perpetual
      attributes: half, newton on, cut 13
      pair build: half/bin/atomonly/newton
      stencil: half/bin/3d
      bin: standard
Per MPI rank memory allocation (min/avg/max) = 8.246 | 8.337 | 9.174 Mbytes
   Step          Temp          E_pair         E_mol          TotEng         Press     
         0   0             -4017.2854      0             -4017.2854      30.842369    
         1   0             -4017.3296      0             -4017.3296      30.157447    
Loop time of 1.04933 on 12 procs for 1 steps with 544 atoms

37.9% CPU use with 12 MPI tasks x 1 OpenMP threads

Minimization stats:
  Stopping criterion = energy tolerance
  Energy initial, next-to-last, final = 
     -4017.28537675504  -4017.28537675504  -4017.32957256362
  Force two-norm initial, final = 3.4785218 0.74604144
  Force max component initial, final = 0.14888908 0.031904291
  Final line search alpha, max atom move = 0.67164094 0.021428228
  Iterations, force evaluations = 1 2

MPI task timing breakdown:
Section |  min time  |  avg time  |  max time  |%varavg| %total
---------------------------------------------------------------
Pair    | 6.24e-06   | 0.0017303  | 0.010959   |   9.3 |  0.16
Neigh   | 0          | 0          | 0          |   0.0 |  0.00
Comm    | 2.384e-06  | 0.0081791  | 0.052434   |  20.3 |  0.78
Output  | 0          | 0          | 0          |   0.0 |  0.00
Modify  | 0          | 0          | 0          |   0.0 |  0.00
Other   |            | 1.039      |            |       | 99.06

Nlocal:        45.3333 ave         289 max           0 min
Histogram: 10 0 0 0 0 0 0 0 1 1
Nghost:        101.333 ave         625 max           0 min
Histogram: 10 0 0 0 0 0 0 0 0 2
Neighs:              0 ave           0 max           0 min
Histogram: 12 0 0 0 0 0 0 0 0 0

Total # of neighbors = 0
Ave neighs/atom = 0
Neighbor list builds = 0
Dangerous builds = 0
#6----define computes------
variable nums equal count(all) #计算原子数目
variable toval equal 13.369*13.369*lz #计算系统总体积，单层石墨烯厚度为0.335nm
variable vol equal ${toval} #体系的初始体积
variable vol equal 7367.75932879863 
variable vatom equal v_vol/v_nums #单个原子体积
compute 1 all stress/atom NULL #计算体系中单原子应力
compute xalls all reduce sum c_1[1]
variable xstress equal (c_xalls)/(v_toval*10000)
compute yalls all reduce sum c_1[2]
variable ystress equal (c_yalls)/(v_toval*10000)
compute zalls all reduce sum c_1[3]
variable zstress equal (c_zalls)/(v_toval*10000)
#7---------relaxation-------------------------
timestep ${tstep}
timestep 0.001
#------------5 温度初始化------------------------------
velocity all create 300 4928459 dist gaussian units box
#------------------------------------------------------
dump   1 all atom 100 all-cy.lammpstrj
#fix    1 all npt temp 300 300  0.1 aniso 0 0  drag 1  #三个方向独立控压
fix  s all npt temp ${temperature} ${temperature} 0.1 y ${pressure} ${pressure} 10 x ${pressure} ${pressure} 10
fix  s all npt temp 300 ${temperature} 0.1 y ${pressure} ${pressure} 10 x ${pressure} ${pressure} 10
fix  s all npt temp 300 300 0.1 y ${pressure} ${pressure} 10 x ${pressure} ${pressure} 10
fix  s all npt temp 300 300 0.1 y 0 ${pressure} 10 x ${pressure} ${pressure} 10
fix  s all npt temp 300 300 0.1 y 0 0 10 x ${pressure} ${pressure} 10
fix  s all npt temp 300 300 0.1 y 0 0 10 x 0 ${pressure} 10
fix  s all npt temp 300 300 0.1 y 0 0 10 x 0 0 10
thermo                1000
thermo_modify       lost ignore
compute  2 all pe/atom
compute  pe all reduce sum c_2
variable PE equal "c_pe"
fix    pe all print 100 "${PE} " file PE.txt screen no
thermo  ${thermalstep}
thermo  100
#thermo_style  custom step pe ke etotal lx ly lz
run   ${relaxtime}
run   0
Per MPI rank memory allocation (min/avg/max) = 8.871 | 8.962 | 9.799 Mbytes
   Step          Temp          E_pair         E_mol          TotEng         Press          Volume    
         1   300           -4017.3296      0             -3996.2731      43.797223      1648912.4    
Loop time of 0.0669997 on 12 procs for 0 steps with 544 atoms

28.4% CPU use with 12 MPI tasks x 1 OpenMP threads

MPI task timing breakdown:
Section |  min time  |  avg time  |  max time  |%varavg| %total
---------------------------------------------------------------
Pair    | 0          | 0          | 0          |   0.0 |  0.00
Neigh   | 0          | 0          | 0          |   0.0 |  0.00
Comm    | 0          | 0          | 0          |   0.0 |  0.00
Output  | 0          | 0          | 0          |   0.0 |  0.00
Modify  | 0          | 0          | 0          |   0.0 |  0.00
Other   |            | 0.067      |            |       |100.00

Nlocal:        45.3333 ave         272 max           0 min
Histogram: 10 0 0 0 0 0 0 0 0 2
Nghost:        101.333 ave         608 max           0 min
Histogram: 10 0 0 0 0 0 0 0 0 2
Neighs:              0 ave           0 max           0 min
Histogram: 12 0 0 0 0 0 0 0 0 0

Total # of neighbors = 0
Ave neighs/atom = 0
Neighbor list builds = 0
Dangerous builds = 0
#8 -------tension-----------------------------
unfix s
undump  1
unfix  pe
reset_timestep 0
fix avestress all ave/atom 1 ${dumpstep} ${dumpstep} c_1[1] c_1[2] c_1[3] c_1[4] c_1[5] c_1[6]
fix avestress all ave/atom 1 1000 ${dumpstep} c_1[1] c_1[2] c_1[3] c_1[4] c_1[5] c_1[6]
fix avestress all ave/atom 1 1000 1000 c_1[1] c_1[2] c_1[3] c_1[4] c_1[5] c_1[6]

#-----calculation of strain and Cumulative compression--------
variable                tmp equal "lz"
variable                L0 equal ${tmp}
variable                L0 equal 41.2228092202
variable                strain equal "(lz - v_L0)/v_L0"
variable                Cumulativels equal "(lz - v_L0)/10"
fix Step all print 100 "${strain} ${Cumulativels} ${zstress}" file grapoten.txt screen no

dump 2 all custom ${dumpstep} tension.xyz type x y z f_avestress[1] f_avestress[2] f_avestress[3] f_avestress[4] f_avestress[5] f_avestress[6]
dump 2 all custom 1000 tension.xyz type x y z f_avestress[1] f_avestress[2] f_avestress[3] f_avestress[4] f_avestress[5] f_avestress[6]

fix  1 all npt temp ${temperature} ${temperature} 0.1 y ${pressure} ${pressure} 10 x ${pressure} ${pressure} 10
fix  1 all npt temp 300 ${temperature} 0.1 y ${pressure} ${pressure} 10 x ${pressure} ${pressure} 10
fix  1 all npt temp 300 300 0.1 y ${pressure} ${pressure} 10 x ${pressure} ${pressure} 10
fix  1 all npt temp 300 300 0.1 y 0 ${pressure} 10 x ${pressure} ${pressure} 10
fix  1 all npt temp 300 300 0.1 y 0 0 10 x ${pressure} ${pressure} 10
fix  1 all npt temp 300 300 0.1 y 0 0 10 x 0 ${pressure} 10
fix  1 all npt temp 300 300 0.1 y 0 0 10 x 0 0 10

thermo_style custom step pe ke etotal lx ly lz
WARNING: New thermo_style command, previous thermo_modify settings will be lost (src/output.cpp:903)
fix   2 all deform 1 z erate ${deformrate} remap x units box
fix   2 all deform 1 z erate 0.005 remap x units box
fix   3 all ave/time 2 500 1000 v_xstress v_ystress v_zstress file pressure.out
run   ${totaltime}
run   100000
WARNING: Dump 2 includes no atom IDs and is not sorted by ID. This may complicate post-processing tasks or visualization (src/dump.cpp:221)
Per MPI rank memory allocation (min/avg/max) = 10.37 | 10.46 | 11.3 Mbytes
   Step         PotEng         KinEng         TotEng           Lx             Ly             Lz      
         0  -4017.3296      21.056478     -3996.2731      200            200            41.222809    
       100  -4004.9367      11.090531     -3993.8462      200.00435      200.00046      41.243421    
       200  -4004.1345      14.015368     -3990.1191      200.00284      199.99451      41.264032    
       300  -4000.6299      15.007568     -3985.6223      199.99504      199.98291      41.284643    
       400  -3998.4254      17.505002     -3980.9204      200.00275      199.98616      41.305255    
       500  -3996.8678      20.327772     -3976.54        199.99583      199.97207      41.325866    
       600  -3996.1865      22.767773     -3973.4187      199.99441      199.96473      41.346478    
       700  -3995.2597      22.489553     -3972.7701      200.00089      199.96533      41.367089    
       800  -3995.5162      21.152519     -3974.3637      199.98989      199.94653      41.3877      
       900  -3997.465       20.982153     -3976.4829      199.99358      199.94602      41.408312    
      1000  -3997.2286      19.857318     -3977.3713      199.99269      199.93911      41.428923    
      1100  -3996.9775      20.694824     -3976.2827      199.9852       199.92385      41.449535    
      1200  -3995.1417      20.865626     -3974.2761      199.99004      199.92427      41.470146    
      1300  -3995.3334      22.199807     -3973.1336      199.98359      199.91072      41.490757    
      1400  -3996.3402      22.690221     -3973.65        199.98127      199.90171      41.511369    
      1500  -3996.448       21.189702     -3975.2583      199.9824       199.89841      41.53198     
      1600  -3996.8755      20.621971     -3976.2535      199.97436      199.88368      41.552592    
      1700  -3996.1953      20.520879     -3975.6745      199.97521      199.8799       41.573203    
      1800  -3995.3777      21.269005     -3974.1086      199.96839      199.87061      41.593815    
      1900  -3993.8777      20.827951     -3973.0498      199.96434      199.86284      41.614426    
      2000  -3995.1731      21.982226     -3973.1909      199.9611       199.85716      41.635037    
      2100  -3994.7806      20.552938     -3974.2276      199.95199      199.84527      41.655649    
      2200  -3995.6848      20.660575     -3975.0243      199.95206      199.84009      41.67626     
      2300  -3995.1909      20.386497     -3974.8044      199.94611      199.82879      41.696872    
      2400  -3994.642       21.103938     -3973.5381      199.94094      199.81776      41.717483    
      2500  -3993.9434      21.508727     -3972.4346      199.9413       199.80981      41.738094    
      2600  -3993.7741      21.695294     -3972.0788      199.93405      199.7946       41.758706    
      2700  -3994.5394      21.26664      -3973.2727      199.93317      199.78483      41.779317    
      2800  -3994.359       20.042667     -3974.3163      199.93182      199.77282      41.799929    
      2900  -3994.0932      20.44         -3973.6532      199.92492      199.75676      41.82054     
      3000  -3993.9893      21.371697     -3972.6176      199.92469      199.74715      41.841151    
      3100  -3994.0971      22.017121     -3972.08        199.9202       199.73378      41.861763    
      3200  -3992.8404      21.002228     -3971.8382      199.9138       199.72048      41.882374    
      3300  -3992.5214      20.723974     -3971.7975      199.90963      199.70987      41.902986    
      3400  -3991.2175      19.480834     -3971.7367      199.90292      199.69919      41.923597    
      3500  -3992.8367      21.414057     -3971.4227      199.89525      199.68705      41.944208    
      3600  -3992.791       21.543891     -3971.2471      199.88908      199.67605      41.96482     
      3700  -3991.0918      20.011699     -3971.0801      199.88237      199.66648      41.985431    
      3800  -3992.3672      21.782359     -3970.5848      199.87284      199.65262      42.006043    
      3900  -3991.563       21.730795     -3969.8322      199.86683      199.64056      42.026654    
      4000  -3990.4025      21.169391     -3969.2331      199.86103      199.63015      42.047265    
      4100  -3990.6696      21.183825     -3969.4857      199.85064      199.61224      42.067877    
      4200  -3991.5723      20.934153     -3970.6382      199.84857      199.60087      42.088488    
      4300  -3991.0232      20.219834     -3970.8034      199.84068      199.58659      42.1091      
      4400  -3990.4182      21.121236     -3969.297       199.83123      199.5683       42.129711    
      4500  -3988.9998      21.608531     -3967.3913      199.82984      199.55765      42.150322    
      4600  -3990.1162      22.620836     -3967.4954      199.81748      199.53886      42.170934    
      4700  -3989.4517      21.181982     -3968.2697      199.81088      199.52538      42.191545    
      4800  -3989.2844      20.514649     -3968.7698      199.80433      199.51116      42.212157    
      4900  -3988.8334      20.411781     -3968.4216      199.79186      199.49295      42.232768    
      5000  -3988.0028      21.913333     -3966.0894      199.78684      199.48104      42.253379    
      5100  -3988.3394      23.469253     -3964.8701      199.77465      199.4603       42.273991    
      5200  -3987.5187      21.643695     -3965.875       199.76862      199.44644      42.294602    
      5300  -3986.6402      20.031586     -3966.6086      199.75823      199.42885      42.315214    
      5400  -3986.6973      20.089877     -3966.6074      199.74653      199.40701      42.335825    
      5500  -3987.5484      21.471341     -3966.077       199.74427      199.39446      42.356436    
      5600  -3986.3107      22.19544      -3964.1152      199.72795      199.3697       42.377048    
      5700  -3984.7096      21.80577      -3962.9038      199.7213       199.35398      42.397659    
      5800  -3985.4         21.535563     -3963.8645      199.71392      199.33725      42.418271    
      5900  -3985.4439      20.971579     -3964.4724      199.69518      199.31133      42.438882    
      6000  -3985.0031      20.683772     -3964.3193      199.69113      199.29978      42.459493    
      6100  -3983.8001      20.084492     -3963.7156      199.67658      199.27664      42.480105    
      6200  -3983.7808      21.630467     -3962.1503      199.66188      199.25566      42.500716    
      6300  -3982.7492      22.329909     -3960.4193      199.65444      199.24268      42.521328    
      6400  -3981.9652      20.848919     -3961.1162      199.63516      199.21674      42.541939    
      6500  -3982.857       20.600145     -3962.2568      199.62504      199.20049      42.562551    
      6600  -3983.5976      21.602893     -3961.9947      199.61029      199.17904      42.583162    
      6700  -3981.7893      20.539049     -3961.2502      199.59589      199.15609      42.603773    
      6800  -3981.09        21.093336     -3959.9966      199.58631      199.13773      42.624385    
      6900  -3980.2715      21.696936     -3958.5745      199.56706      199.10969      42.644996    
      7000  -3979.7832      21.598685     -3958.1846      199.55934      199.09113      42.665608    
      7100  -3980.7774      20.972782     -3959.8046      199.5418       199.06444      42.686219    
      7200  -3981.3152      21.38185      -3959.9334      199.52544      199.03852      42.70683     
      7300  -3979.7069      20.712642     -3958.9942      199.51697      199.01835      42.727442    
      7400  -3979.9575      22.769708     -3957.1878      199.49552      198.98532      42.748053    
      7500  -3979.1928      23.152387     -3956.0404      199.48539      198.96361      42.768665    
      7600  -3977.8322      20.667634     -3957.1646      199.47064      198.9349       42.789276    
      7700  -3978.9684      20.870142     -3958.0983      199.45204      198.90284      42.809887    
      7800  -3977.1049      19.994771     -3957.1101      199.44163      198.88031      42.830499    
      7900  -3976.6926      21.314014     -3955.3786      199.42175      198.84673      42.85111     
      8000  -3975.1649      21.056814     -3954.1081      199.40682      198.81959      42.871722    
      8100  -3975.4418      21.403421     -3954.0384      199.38852      198.79145      42.892333    
      8200  -3974.8809      19.017711     -3955.8632      199.36823      198.76092      42.912944    
      8300  -3975.2345      19.908128     -3955.3264      199.35077      198.73338      42.933556    
      8400  -3974.6077      21.013902     -3953.5938      199.3257       198.70201      42.954167    
      8500  -3973.6041      21.47453      -3952.1296      199.30707      198.67555      42.974779    
      8600  -3973.4587      21.928246     -3951.5305      199.28333      198.64278      42.99539     
      8700  -3973.3584      21.342214     -3952.0161      199.26055      198.61091      43.016001    
      8800  -3972.6645      19.244008     -3953.4205      199.23995      198.58071      43.036613    
      8900  -3972.8719      20.485896     -3952.386       199.2155       198.54314      43.057224    
      9000  -3971.5369      20.863034     -3950.6738      199.19465      198.50934      43.077836    
      9100  -3969.5973      20.24143      -3949.3559      199.17311      198.47248      43.098447    
      9200  -3969.8469      21.343325     -3948.5036      199.15093      198.4321       43.119058    
      9300  -3969.0709      20.809019     -3948.2619      199.12991      198.39283      43.13967     
      9400  -3970.3484      20.613562     -3949.7348      199.10676      198.35174      43.160281    
      9500  -3969.0271      19.627574     -3949.3996      199.08435      198.31072      43.180893    
      9600  -3967.5027      20.088844     -3947.4139      199.05916      198.26685      43.201504    
      9700  -3967.3198      21.2543       -3946.0655      199.03533      198.22635      43.222115    
      9800  -3966.5402      21.294321     -3945.2459      199.00774      198.18292      43.242727    
      9900  -3965.5838      20.929195     -3944.6546      198.97987      198.13907      43.263338    
     10000  -3966.0634      21.088591     -3944.9748      198.95153      198.09752      43.28395     
     10100  -3965.1601      19.578904     -3945.5812      198.91779      198.05253      43.304561    
     10200  -3965.72        21.231071     -3944.4889      198.88838      198.00992      43.325172    
     10300  -3963.6439      21.457901     -3942.186       198.85313      197.96349      43.345784    
     10400  -3962.5458      21.30596      -3941.2399      198.81971      197.92047      43.366395    
     10500  -3962.7166      21.641901     -3941.0747      198.78508      197.87223      43.387007    
     10600  -3963.1483      21.810484     -3941.3378      198.75038      197.82021      43.407618    
     10700  -3961.9113      20.112291     -3941.799       198.71881      197.77312      43.42823     
     10800  -3962.3813      19.958609     -3942.4226      198.68123      197.71401      43.448841    
     10900  -3959.8648      19.239783     -3940.625       198.65216      197.66048      43.469452    
     11000  -3959.5075      21.070613     -3938.4369      198.6187       197.60141      43.490064    
     11100  -3959.1769      22.001662     -3937.1753      198.5823       197.53912      43.510675    
     11200  -3956.7262      20.392338     -3936.3339      198.55443      197.48199      43.531287    
     11300  -3957.1675      20.998987     -3936.1685      198.51186      197.41478      43.551898    
     11400  -3956.682       19.908854     -3936.7731      198.47781      197.35717      43.572509    
     11500  -3956.9981      20.212517     -3936.7856      198.43763      197.29366      43.593121    
     11600  -3954.939       20.182893     -3934.7561      198.39245      197.22822      43.613732    
     11700  -3954.7392      22.152877     -3932.5863      198.35259      197.17348      43.634344    
     11800  -3953.5077      21.411333     -3932.0964      198.29952      197.10566      43.654955    
     11900  -3952.6133      20.067744     -3932.5456      198.25591      197.04702      43.675566    
     12000  -3954.095       21.465177     -3932.6299      198.20533      196.98204      43.696178    
     12100  -3951.9166      20.436323     -3931.4803      198.15277      196.91241      43.716789    
     12200  -3949.4451      20.922769     -3928.5224      198.11061      196.84892      43.737401    
     12300  -3949.1709      21.392219     -3927.7787      198.05479      196.76948      43.758012    
     12400  -3949.2127      20.801592     -3928.4111      198.01017      196.69864      43.778623    
     12500  -3948.4644      19.87859      -3928.5858      197.96293      196.62007      43.799235    
     12600  -3949.7735      21.926267     -3927.8473      197.91183      196.53411      43.819846    
     12700  -3947.0984      20.488147     -3926.6103      197.86825      196.45688      43.840458    
     12800  -3946.3945      21.652674     -3924.7418      197.81578      196.36742      43.861069    
     12900  -3944.5148      22.789114     -3921.7256      197.76755      196.28164      43.88168     
     13000  -3944.7875      22.834324     -3921.9532      197.71435      196.19559      43.902292    
     13100  -3943.723       21.006594     -3922.7164      197.6569       196.10789      43.922903    
     13200  -3944.1515      21.259614     -3922.8919      197.60015      196.02261      43.943515    
     13300  -3943.1306      20.411291     -3922.7194      197.53631      195.93516      43.964126    
     13400  -3941.8828      19.971749     -3921.9111      197.47356      195.85158      43.984737    
     13500  -3941.2609      21.726033     -3919.5348      197.40655      195.76229      44.005349    
     13600  -3940.721       22.808393     -3917.9126      197.34028      195.67407      44.02596     
     13700  -3940.1067      21.964512     -3918.1422      197.27273      195.58431      44.046572    
     13800  -3938.7241      20.222178     -3918.5019      197.20367      195.4885       44.067183    
     13900  -3938.2548      20.447993     -3917.8068      197.13873      195.39321      44.087794    
     14000  -3937.4159      20.649346     -3916.7665      197.07069      195.29254      44.108406    
     14100  -3935.9911      20.723942     -3915.2671      197.00446      195.19058      44.129017    
     14200  -3934.1838      21.334306     -3912.8494      196.93817      195.08394      44.149629    
     14300  -3933.8895      22.228987     -3911.6605      196.87266      194.97747      44.17024     
     14400  -3934.6797      21.736766     -3912.9429      196.80353      194.86661      44.190851    
     14500  -3934.0411      21.306218     -3912.7349      196.73486      194.7546       44.211463    
     14600  -3932.7788      20.713458     -3912.0653      196.66744      194.64552      44.232074    
     14700  -3931.4212      20.498978     -3910.9222      196.58977      194.53011      44.252686    
     14800  -3930.1882      20.980386     -3909.2078      196.5174       194.42137      44.273297    
     14900  -3929.6489      22.239676     -3907.4092      196.43921      194.30904      44.293909    
     15000  -3928.7794      21.614885     -3907.1645      196.35563      194.19578      44.31452     
     15100  -3929.1029      20.858798     -3908.2441      196.27569      194.08816      44.335131    
     15200  -3927.3655      19.752978     -3907.6125      196.18749      193.97159      44.355743    
     15300  -3927.1941      21.110782     -3906.0833      196.10497      193.86108      44.376354    
     15400  -3925.606       21.841391     -3903.7646      196.0174       193.74317      44.396966    
     15500  -3924.4421      22.022634     -3902.4195      195.93244      193.62385      44.417577    
     15600  -3923.6175      20.380824     -3903.2367      195.84986      193.50428      44.438188    
     15700  -3924.3617      20.62931      -3903.7324      195.76164      193.37573      44.4588      
     15800  -3922.8332      20.641459     -3902.1917      195.68404      193.25276      44.479411    
     15900  -3921.8962      21.878249     -3900.0179      195.59965      193.11869      44.500023    
     16000  -3919.6884      21.136884     -3898.5515      195.51894      192.98696      44.520634    
     16100  -3919.2085      20.858207     -3898.3503      195.43818      192.85462      44.541245    
     16200  -3919.5622      20.275535     -3899.2866      195.3519       192.71635      44.561857    
     16300  -3918.2919      19.787096     -3898.5048      195.27065      192.58454      44.582468    
     16400  -3917.0381      20.210297     -3896.8278      195.17992      192.44759      44.60308     
     16500  -3916.3924      21.160933     -3895.2314      195.09185      192.31641      44.623691    
     16600  -3915.9104      21.99195      -3893.9184      194.99835      192.18387      44.644302    
     16700  -3913.3202      20.229802     -3893.0904      194.90106      192.05225      44.664914    
     16800  -3913.6571      20.440519     -3893.2166      194.80522      191.92515      44.685525    
     16900  -3914.0359      20.183917     -3893.8519      194.70297      191.79071      44.706137    
     17000  -3912.3991      20.149664     -3892.2494      194.60662      191.6625       44.726748    
     17100  -3910.8846      21.027157     -3889.8575      194.50532      191.52796      44.747359    
     17200  -3909.8685      21.47542      -3888.3931      194.40704      191.39347      44.767971    
     17300  -3908.0129      20.672736     -3887.3401      194.31109      191.25711      44.788582    
     17400  -3907.9319      20.866983     -3887.0649      194.21297      191.11509      44.809194    
     17500  -3908.38        20.78841      -3887.5916      194.12188      190.97478      44.829805    
     17600  -3906.6874      19.781115     -3886.9063      194.02566      190.82717      44.850416    
     17700  -3905.2874      21.25849      -3884.0289      193.93643      190.68444      44.871028    
     17800  -3903.0019      20.73658      -3882.2654      193.84132      190.53485      44.891639    
     17900  -3903.5364      22.055106     -3881.4813      193.74978      190.38919      44.912251    
     18000  -3902.8516      21.383375     -3881.4682      193.65522      190.24325      44.932862    
     18100  -3901.6307      20.052003     -3881.5787      193.55575      190.09653      44.953473    
     18200  -3901.7743      21.476919     -3880.2973      193.45992      189.95771      44.974085    
     18300  -3899.7586      22.631051     -3877.1276      193.35444      189.81222      44.994696    
     18400  -3897.6887      21.756929     -3875.9318      193.25571      189.67583      45.015308    
     18500  -3897.5602      21.715873     -3875.8443      193.14942      189.53397      45.035919    
     18600  -3897.2008      21.066474     -3876.1343      193.04601      189.39491      45.05653     
     18700  -3895.563       20.246116     -3875.3169      192.94395      189.25692      45.077142    
     18800  -3894.5633      21.172878     -3873.3905      192.83624      189.11304      45.097753    
     18900  -3892.3886      21.234036     -3871.1546      192.74058      188.97732      45.118365    
     19000  -3891.852       21.567263     -3870.2848      192.63355      188.82694      45.138976    
     19100  -3890.8647      20.891131     -3869.9736      192.53903      188.68765      45.159588    
     19200  -3891.1428      21.415613     -3869.7271      192.4392       188.54101      45.180199    
     19300  -3890.2515      21.03367      -3869.2178      192.34045      188.39147      45.20081     
     19400  -3888.3318      20.86105      -3867.4707      192.24998      188.24948      45.221422    
     19500  -3885.4389      20.702102     -3864.7368      192.14913      188.09587      45.242033    
     19600  -3884.7798      21.013434     -3863.7664      192.0594       187.95347      45.262645    
     19700  -3884.9136      21.171145     -3863.7424      191.95969      187.80351      45.283256    
     19800  -3883.6686      20.28624      -3863.3824      191.86412      187.66172      45.303867    
     19900  -3883.2788      20.947949     -3862.3308      191.7651       187.51989      45.324479    
     20000  -3882.7353      21.698749     -3861.0365      191.6619       187.3773       45.34509     
     20100  -3880.6605      21.223827     -3859.4366      191.56557      187.24348      45.365702    
     20200  -3879.7049      21.828947     -3857.876       191.45709      187.1023       45.386313    
     20300  -3877.416       21.057484     -3856.3585      191.35836      186.97063      45.406924    
     20400  -3876.1114      20.596392     -3855.515       191.25407      186.83382      45.427536    
     20500  -3876.6282      20.749228     -3855.879       191.15158      186.69825      45.448147    
     20600  -3875.2752      19.680215     -3855.595       191.05278      186.56423      45.468759    
     20700  -3875.1396      21.205487     -3853.9341      190.95245      186.42481      45.48937     
     20800  -3873.0119      22.049093     -3850.9628      190.85886      186.29004      45.509981    
     20900  -3871.4216      21.650483     -3849.7711      190.76107      186.14865      45.530593    
     21000  -3871.3292      21.873347     -3849.4559      190.66969      186.01181      45.551204    
     21100  -3870.0647      20.735496     -3849.3292      190.57798      185.87117      45.571816    
     21200  -3870.2156      21.467524     -3848.7481      190.48657      185.73148      45.592427    
     21300  -3868.1755      21.182918     -3846.9925      190.39659      185.59393      45.613038    
     21400  -3866.2119      22.280327     -3843.9315      190.30558      185.45623      45.63365     
     21500  -3865.2292      22.211968     -3843.0173      190.21468      185.32118      45.654261    
     21600  -3863.7511      20.314016     -3843.4371      190.12032      185.18697      45.674873    
     21700  -3864.0391      21.099024     -3842.94        190.02937      185.05798      45.695484    
     21800  -3863.2962      21.58212      -3841.7141      189.93256      184.92629      45.716095    
     21900  -3860.8308      21.063652     -3839.7671      189.84017      184.80156      45.736707    
     22000  -3859.2581      22.928958     -3836.3291      189.7431       184.67514      45.757318    
     22100  -3858.0347      22.646701     -3835.388       189.64797      184.55159      45.77793     
     22200  -3856.5961      21.038351     -3835.5577      189.55453      184.42873      45.798541    
     22300  -3857.0966      21.569822     -3835.5268      189.45839      184.3023       45.819152    
     22400  -3855.7801      20.820885     -3834.9592      189.3715       184.18298      45.839764    
     22500  -3855.0162      21.233826     -3833.7824      189.27699      184.053        45.860375    
     22600  -3852.7648      21.693737     -3831.0711      189.19386      183.93175      45.880987    
     22700  -3851.7111      22.733545     -3828.9776      189.10759      183.8052       45.901598    
     22800  -3849.9092      21.048109     -3828.8611      189.02203      183.6769       45.922209    
     22900  -3850.4975      21.631732     -3828.8657      188.94372      183.55424      45.942821    
     23000  -3848.6144      20.719207     -3827.8952      188.85801      183.42449      45.963432    
     23100  -3848.2331      21.782151     -3826.4509      188.78064      183.3046       45.984044    
     23200  -3845.9592      21.37482      -3824.5844      188.69536      183.17832      46.004655    
     23300  -3842.2275      20.616505     -3821.611       188.61581      183.06018      46.025266    
     23400  -3843.2858      23.043691     -3820.2421      188.53265      182.94276      46.045878    
     23500  -3841.7046      21.044996     -3820.6596      188.44336      182.82438      46.066489    
     23600  -3841.7002      21.520925     -3820.1792      188.36327      182.71675      46.087101    
     23700  -3839.771       20.182854     -3819.5881      188.27106      182.60269      46.107712    
     23800  -3839.7574      21.071298     -3818.6861      188.18513      182.49601      46.128324    
     23900  -3837.1436      20.086319     -3817.0573      188.09862      182.38982      46.148935    
     24000  -3836.6462      22.265059     -3814.3811      188.01197      182.28093      46.169546    
     24100  -3835.0424      22.254821     -3812.7876      187.92901      182.17415      46.190158    
     24200  -3834.4446      21.408247     -3813.0364      187.84718      182.06486      46.210769    
     24300  -3833.8586      20.740896     -3813.1177      187.76889      181.95655      46.231381    
     24400  -3832.1323      20.523783     -3811.6085      187.69177      181.84523      46.251992    
     24500  -3830.7423      21.255239     -3809.487       187.61796      181.73396      46.272603    
     24600  -3828.0307      20.475292     -3807.5554      187.54711      181.62327      46.293215    
     24700  -3826.9811      20.830969     -3806.1502      187.47475      181.5099       46.313826    
     24800  -3827.5348      21.549353     -3805.9855      187.406        181.39966      46.334438    
     24900  -3826.2476      20.294612     -3805.953       187.33542      181.29045      46.355049    
     25000  -3825.4753      20.778282     -3804.697       187.26165      181.18328      46.37566     
     25100  -3823.8416      21.779634     -3802.062       187.19133      181.08043      46.396272    
     25200  -3821.9675      22.091364     -3799.8761      187.11545      180.97628      46.416883    
     25300  -3820.991       21.967316     -3799.0237      187.04098      180.87945      46.437495    
     25400  -3819.0879      20.71998      -3798.3679      186.96338      180.78232      46.458106    
     25500  -3818.2374      20.768411     -3797.469       186.88625      180.686        46.478717    
     25600  -3816.7242      20.458464     -3796.2658      186.81135      180.59471      46.499329    
     25700  -3815.8121      20.860985     -3794.9511      186.73147      180.49842      46.51994     
     25800  -3814.8136      21.306217     -3793.5074      186.66045      180.4087       46.540552    
     25900  -3812.7619      21.040807     -3791.7211      186.5849       180.31101      46.561163    
     26000  -3810.414       21.347069     -3789.0669      186.5159       180.21866      46.581774    
     26100  -3810.6118      22.715649     -3787.8962      186.44621      180.1233       46.602386    
     26200  -3810.6433      22.190128     -3788.4532      186.37819      180.02525      46.622997    
     26300  -3807.5155      19.617902     -3787.8976      186.31763      179.93066      46.643609    
     26400  -3807.7593      21.249724     -3786.5096      186.24975      179.82893      46.66422     
     26500  -3805.5978      21.377605     -3784.2202      186.1927       179.73642      46.684831    
     26600  -3803.4197      22.176531     -3781.2432      186.12819      179.63574      46.705443    
     26700  -3802.316       21.951532     -3780.3644      186.06737      179.54176      46.726054    
     26800  -3801.8078      21.541848     -3780.266       186.00521      179.45075      46.746666    
     26900  -3800.7554      21.356587     -3779.3988      185.93799      179.35724      46.767277    
     27000  -3800.1557      21.573839     -3778.5818      185.8765       179.27159      46.787888    
     27100  -3798.025       20.440481     -3777.5845      185.80717      179.1828       46.8085      
     27200  -3797.9259      21.924162     -3776.0018      185.74105      179.10091      46.829111    
     27300  -3794.9186      21.427959     -3773.4906      185.67264      179.0184       46.849723    
     27400  -3792.9096      21.436556     -3771.473       185.60309      178.93526      46.870334    
     27500  -3793.0644      21.969115     -3771.0953      185.53818      178.85745      46.890945    
     27600  -3792.5098      20.87909      -3771.6307      185.46768      178.773        46.911557    
     27700  -3791.4873      21.251341     -3770.236       185.40563      178.69289      46.932168    
     27800  -3789.0819      21.210218     -3767.8717      185.34348      178.60937      46.95278     
     27900  -3786.9702      21.214989     -3765.7552      185.2809       178.52354      46.973391    
     28000  -3786.3617      21.80071      -3764.561       185.22507      178.441        46.994003    
     28100  -3784.1525      19.873123     -3764.2794      185.16628      178.35202      47.014614    
     28200  -3785.9713      20.832831     -3765.1385      185.11305      178.26656      47.035225    
     28300  -3783.2803      20.257117     -3763.0231      185.05801      178.17953      47.055837    
     28400  -3780.8487      20.670498     -3760.1782      185.00422      178.09418      47.076448    
     28500  -3779.152       21.078157     -3758.0738      184.94983      178.01123      47.09706     
     28600  -3777.8302      21.161559     -3756.6687      184.89154      177.92744      47.117671    
     28700  -3776.7597      20.720394     -3756.0393      184.83636      177.85092      47.138282    
     28800  -3777.1126      20.848186     -3756.2644      184.77401      177.77172      47.158894    
     28900  -3775.959       20.893863     -3755.0651      184.71492      177.6974       47.179505    
     29000  -3773.1075      20.981035     -3752.1264      184.65387      177.62413      47.200117    
     29100  -3771.4735      21.334693     -3750.1388      184.58984      177.55119      47.220728    
     29200  -3769.7685      20.761009     -3749.0075      184.52922      177.4823       47.241339    
     29300  -3769.4628      21.26808      -3748.1947      184.46502      177.40902      47.261951    
     29400  -3768.4581      20.870814     -3747.5873      184.40545      177.33925      47.282562    
     29500  -3767.4565      20.639139     -3746.8174      184.34682      177.26735      47.303174    
     29600  -3765.7762      21.128207     -3744.648       184.28795      177.1913       47.323785    
     29700  -3763.6573      21.928905     -3741.7284      184.23723      177.11961      47.344396    
     29800  -3759.6814      19.624077     -3740.0573      184.18166      177.04014      47.365008    
     29900  -3761.6115      22.033396     -3739.5781      184.13322      176.9648       47.385619    
     30000  -3759.2061      19.638855     -3739.5672      184.08211      176.88522      47.406231    
     30100  -3759.8186      20.905579     -3738.913       184.034        176.80754      47.426842    
     30200  -3758.0555      20.931311     -3737.1242      183.98553      176.7311       47.447453    
     30300  -3754.9645      21.023985     -3733.9406      183.93438      176.65234      47.468065    
     30400  -3753.1436      21.360276     -3731.7833      183.88821      176.58014      47.488676    
     30500  -3752.6961      21.997868     -3730.6983      183.83395      176.50385      47.509288    
     30600  -3751.5804      20.936197     -3730.6442      183.78202      176.43452      47.529899    
     30700  -3751.3429      21.383219     -3729.9596      183.72724      176.36587      47.55051     
     30800  -3748.3446      20.454143     -3727.8904      183.67038      176.2973       47.571122    
     30900  -3746.5032      22.164191     -3724.339       183.61552      176.23414      47.591733    
     31000  -3745.0062      21.870636     -3723.1356      183.55522      176.16692      47.612345    
     31100  -3744.7504      21.551396     -3723.199       183.50031      176.10525      47.632956    
     31200  -3743.195       20.68416      -3722.5108      183.44207      176.03949      47.653567    
     31300  -3741.2058      20.257145     -3720.9487      183.38573      175.97439      47.674179    
     31400  -3739.3886      21.004142     -3718.3844      183.33381      175.91062      47.69479     
     31500  -3736.9314      21.960312     -3714.9711      183.27821      175.84123      47.715402    
     31600  -3736.0159      21.811558     -3714.2044      183.23044      175.77548      47.736013    
     31700  -3736.4901      22.390303     -3714.0998      183.1797       175.70316      47.756624    
     31800  -3734.3782      20.754467     -3713.6238      183.13397      175.63362      47.777236    
     31900  -3733.2895      20.759427     -3712.5301      183.08854      175.56222      47.797847    
     32000  -3731.9378      21.121077     -3710.8167      183.04122      175.48881      47.818459    
     32100  -3729.526       21.925118     -3707.6009      182.9999       175.42063      47.83907     
     32200  -3727.033       21.156088     -3705.8769      182.95017      175.34641      47.859682    
     32300  -3727.3172      21.496936     -3705.8202      182.90631      175.28009      47.880293    
     32400  -3727.0394      21.730526     -3705.3089      182.85579      175.21069      47.900904    
     32500  -3724.9352      21.089448     -3703.8458      182.80769      175.14493      47.921516    
     32600  -3723.6501      21.756247     -3701.8938      182.75735      175.08068      47.942127    
     32700  -3720.9482      21.383507     -3699.5647      182.70391      175.01689      47.962739    
     32800  -3718.0534      21.563922     -3696.4895      182.65329      174.95755      47.98335     
     32900  -3717.4169      22.395992     -3695.0209      182.59637      174.8937       48.003961    
     33000  -3717.1838      21.268834     -3695.9149      182.54611      174.83655      48.024573    
     33100  -3715.7967      20.603265     -3695.1934      182.48913      174.77299      48.045184    
     33200  -3714.5937      20.689962     -3693.9037      182.43936      174.71493      48.065796    
     33300  -3713.1634      21.283295     -3691.8801      182.38642      174.65061      48.086407    
     33400  -3711.063       21.948083     -3689.1149      182.33844      174.58759      48.107018    
     33500  -3709.638       22.434801     -3687.2032      182.29072      174.52316      48.12763     
     33600  -3708.3664      20.648874     -3687.7175      182.24459      174.4572       48.148241    
     33700  -3707.4061      20.196713     -3687.2094      182.19867      174.38961      48.168853    
     33800  -3706.1522      20.805587     -3685.3467      182.15604      174.32387      48.189464    
     33900  -3703.9355      21.210416     -3682.7251      182.11053      174.25526      48.210075    
     34000  -3702.5567      22.034161     -3680.5226      182.06694      174.18869      48.230687    
     34100  -3700.5986      20.937086     -3679.6615      182.02315      174.12243      48.251298    
     34200  -3700.1341      19.579998     -3680.5541      181.97689      174.05625      48.27191     
     34300  -3698.4561      19.590882     -3678.8652      181.93057      173.99265      48.292521    
     34400  -3697.5591      21.618897     -3675.9402      181.88112      173.92974      48.313132    
     34500  -3696.0126      22.228354     -3673.7842      181.83349      173.87053      48.333744    
     34600  -3693.1715      20.725981     -3672.4455      181.77949      173.8085       48.354355    
     34700  -3692.895       21.020046     -3671.875       181.73168      173.75287      48.374967    
     34800  -3692.8619      20.699035     -3672.1629      181.67697      173.69138      48.395578    
     34900  -3690.5667      20.090193     -3670.4765      181.62689      173.63485      48.416189    
     35000  -3689.1705      21.520438     -3667.6501      181.57493      173.57528      48.436801    
     35100  -3687.3096      21.726125     -3665.5835      181.5245       173.51522      48.457412    
     35200  -3684.2705      20.223845     -3664.0466      181.47686      173.456        48.478024    
     35300  -3683.2281      20.86773      -3662.3604      181.42625      173.39248      48.498635    
     35400  -3681.6943      21.464646     -3660.2297      181.38184      173.33197      48.519246    
     35500  -3680.6764      22.335353     -3658.3411      181.33419      173.26617      48.539858    
     35600  -3678.6296      20.834201     -3657.7954      181.29113      173.20323      48.560469    
     35700  -3678.077       20.327031     -3657.75        181.24582      173.13675      48.581081    
     35800  -3676.8044      20.400178     -3656.4042      181.20215      173.0712       48.601692    
     35900  -3674.8887      20.954006     -3653.9346      181.16032      173.00703      48.622303    
     36000  -3672.5992      21.871198     -3650.728       181.11204      172.93936      48.642915    
     36100  -3671.8136      22.348902     -3649.4647      181.07096      172.879        48.663526    
     36200  -3670.3755      21.411773     -3648.9637      181.02235      172.81374      48.684138    
     36300  -3668.3333      19.93454      -3648.3987      180.97545      172.75187      48.704749    
     36400  -3667.9634      20.750118     -3647.2133      180.92748      172.69232      48.72536     
     36500  -3666.3466      21.915599     -3644.431       180.87584      172.62997      48.745972    
     36600  -3663.0996      21.503338     -3641.5962      180.82958      172.57442      48.766583    
     36700  -3662.731       22.151092     -3640.5799      180.77394      172.51182      48.787195    
     36800  -3661.6217      21.226252     -3640.3954      180.72762      172.45809      48.807806    
     36900  -3659.3803      20.065102     -3639.3152      180.67177      172.39524      48.828418    
     37000  -3658.3937      20.738768     -3637.6549      180.62464      172.34         48.849029    
     37100  -3656.6371      21.028841     -3635.6083      180.57182      172.27898      48.86964     
     37200  -3654.5676      21.148205     -3633.4194      180.52264      172.21865      48.890252    
     37300  -3652.4953      21.818951     -3630.6764      180.47613      172.15961      48.910863    
     37400  -3651.102       22.831953     -3628.27        180.42372      172.09245      48.931475    
     37500  -3650.9135      22.463922     -3628.4495      180.3825       172.03548      48.952086    
     37600  -3650.1398      21.953244     -3628.1865      180.33087      171.96564      48.972697    
     37700  -3647.3036      20.153893     -3627.1497      180.29165      171.9054       48.993309    
     37800  -3646.8817      21.524718     -3625.357       180.24315      171.83509      49.01392     
     37900  -3644.8195      22.263929     -3622.5556      180.20051      171.77135      49.034532    
     38000  -3641.749       21.531177     -3620.2178      180.15683      171.70654      49.055143    
     38100  -3641.6634      21.833233     -3619.8302      180.10769      171.63671      49.075754    
     38200  -3641.3919      21.303929     -3620.088       180.06881      171.57629      49.096366    
     38300  -3638.0876      19.731671     -3618.3559      180.015        171.50693      49.116977    
     38400  -3636.871       21.138414     -3615.7325      179.97199      171.44952      49.137589    
     38500  -3634.9341      21.632158     -3613.3019      179.91675      171.38424      49.1582      
     38600  -3632.4634      20.504531     -3611.9589      179.86902      171.32692      49.178811    
     38700  -3632.5802      19.818466     -3612.7617      179.81455      171.26565      49.199423    
     38800  -3631.2543      19.775628     -3611.4787      179.7606       171.2064       49.220034    
     38900  -3629.7784      20.969558     -3608.8088      179.70854      171.14943      49.240646    
     39000  -3627.5984      21.415623     -3606.1828      179.65244      171.08731      49.261257    
     39100  -3626.5508      22.214564     -3604.3363      179.60357      171.03071      49.281868    
     39200  -3624.2213      20.872085     -3603.3492      179.54606      170.96386      49.30248     
     39300  -3624.6817      20.768967     -3603.9128      179.50152      170.90703      49.323091    
     39400  -3621.9218      19.442578     -3602.4792      179.44687      170.83806      49.343703    
     39500  -3620.1054      20.429648     -3599.6758      179.40129      170.77518      49.364314    
     39600  -3619.1015      21.682715     -3597.4188      179.3542       170.70913      49.384925    
     39700  -3616.6442      21.095613     -3595.5486      179.30489      170.63773      49.405537    
     39800  -3615.5437      21.631758     -3593.912       179.26418      170.57397      49.426148    
     39900  -3613.6174      20.523804     -3593.0936      179.21192      170.49899      49.44676     
     40000  -3613.0437      20.395328     -3592.6484      179.17056      170.43532      49.467371    
     40100  -3611.5612      20.476567     -3591.0847      179.11888      170.3632       49.487982    
     40200  -3609.5475      21.791604     -3587.7559      179.07249      170.29791      49.508594    
     40300  -3606.776       21.161094     -3585.615       179.02133      170.23104      49.529205    
     40400  -3605.6294      21.150817     -3584.4786      178.96828      170.16496      49.549817    
     40500  -3604.8361      20.924973     -3583.9111      178.91724      170.10257      49.570428    
     40600  -3603.3709      19.652067     -3583.7189      178.85817      170.03525      49.591039    
     40700  -3602.7303      20.054324     -3582.6759      178.80862      169.97836      49.611651    
     40800  -3599.1708      19.588797     -3579.582       178.7443       169.90926      49.632262    
     40900  -3598.1193      21.588625     -3576.5307      178.69437      169.85268      49.652874    
     41000  -3596.0102      21.429169     -3574.581       178.63345      169.78487      49.673485    
     41100  -3595.1912      21.348373     -3573.8428      178.5791       169.72228      49.694097    
     41200  -3594.8499      21.197468     -3573.6524      178.52393      169.65773      49.714708    
     41300  -3592.5673      20.350845     -3572.2164      178.46487      169.58745      49.735319    
     41400  -3590.4024      21.421019     -3568.9813      178.41722      169.52484      49.755931    
     41500  -3588.2987      21.825541     -3566.4732      178.35868      169.44829      49.776542    
     41600  -3587.5864      22.241177     -3565.3452      178.31294      169.38137      49.797154    
     41700  -3585.7919      20.792965     -3564.999       178.25738      169.30452      49.817765    
     41800  -3584.4893      20.337199     -3564.1521      178.21         169.23459      49.838376    
     41900  -3583.7636      21.622237     -3562.1413      178.15656      169.1574       49.858988    
     42000  -3580.3691      21.932229     -3558.4368      178.10728      169.0841       49.879599    
     42100  -3579.2598      22.643208     -3556.6166      178.05532      169.00976      49.900211    
     42200  -3577.3213      21.0689       -3556.2524      177.9996       168.93558      49.920822    
     42300  -3576.2107      20.675855     -3555.5349      177.947        168.86577      49.941433    
     42400  -3575.9129      21.679144     -3554.2338      177.8857       168.78971      49.962045    
     42500  -3572.7067      20.408432     -3552.2982      177.83292      168.72435      49.982656    
     42600  -3570.4058      21.802098     -3548.6037      177.76815      168.65015      50.003268    
     42700  -3568.7139      22.044888     -3546.6691      177.70837      168.58249      50.023879    
     42800  -3568.0843      21.669266     -3546.415       177.648        168.51384      50.04449     
     42900  -3566.6912      20.972505     -3545.7187      177.58342      168.44125      50.065102    
     43000  -3564.987       20.561307     -3544.4257      177.52373      168.3736       50.085713    
     43100  -3564.3621      21.556163     -3542.806       177.45849      168.2994       50.106325    
     43200  -3562.7309      22.47381      -3540.2571      177.39993      168.23014      50.126936    
     43300  -3559.0935      21.451802     -3537.6417      177.33612      168.15307      50.147547    
     43400  -3558.8125      21.925011     -3536.8875      177.27758      168.07948      50.168159    
     43500  -3556.8454      19.756611     -3537.0888      177.21592      168.00054      50.18877     
     43600  -3556.4525      20.821832     -3535.6307      177.15986      167.92482      50.209382    
     43700  -3553.7265      20.534303     -3533.1922      177.09843      167.84145      50.229993    
     43800  -3552.221       21.532939     -3530.6881      177.04299      167.76382      50.250604    
     43900  -3550.3821      21.350753     -3529.0313      176.98264      167.68087      50.271216    
     44000  -3549.0718      20.423073     -3528.6487      176.92327      167.59967      50.291827    
     44100  -3549.2142      20.050902     -3529.1633      176.86277      167.51831      50.312439    
     44200  -3546.5998      20.131353     -3526.4685      176.80017      167.43653      50.33305     
     44300  -3543.5001      20.141435     -3523.3587      176.73853      167.35664      50.353661    
     44400  -3542.6604      21.767098     -3520.8933      176.6729       167.27469      50.374273    
     44500  -3540.9156      21.218946     -3519.6967      176.60791      167.19479      50.394884    
     44600  -3539.6297      20.102008     -3519.5277      176.5398       167.1147       50.415496    
     44700  -3539.2305      20.459391     -3518.7711      176.47232      167.03471      50.436107    
     44800  -3538.51        22.198219     -3516.3118      176.40228      166.95396      50.456718    
     44900  -3533.9524      21.360125     -3512.5923      176.33344      166.87305      50.47733     
     45000  -3533.3155      21.969176     -3511.3464      176.26369      166.79172      50.497941    
     45100  -3532.221       21.187734     -3511.0333      176.1925       166.70801      50.518553    
     45200  -3530.3086      20.077483     -3510.2311      176.12334      166.62598      50.539164    
     45300  -3529.1998      21.144197     -3508.0556      176.05113      166.53938      50.559776    
     45400  -3525.971       21.409274     -3504.5617      175.98427      166.45632      50.580387    
     45500  -3524.9216      21.998604     -3502.923       175.91084      166.36472      50.600998    
     45600  -3523.1038      21.189257     -3501.9145      175.84414      166.27878      50.62161     
     45700  -3522.3206      21.119849     -3501.2007      175.77286      166.18655      50.642221    
     45800  -3520.5736      20.394872     -3500.1788      175.70471      166.09575      50.662833    
     45900  -3518.4162      20.060876     -3498.3553      175.63609      166.00317      50.683444    
     46000  -3517.6523      21.811349     -3495.841       175.56424      165.90707      50.704055    
     46100  -3514.1851      22.526694     -3491.6584      175.49763      165.81638      50.724667    
     46200  -3512.8796      21.590984     -3491.2886      175.42096      165.71799      50.745278    
     46300  -3513.1374      21.862723     -3491.2747      175.3519       165.62721      50.76589     
     46400  -3511.8847      21.360576     -3490.5242      175.27452      165.52958      50.786501    
     46500  -3509.3122      20.551202     -3488.761       175.20137      165.43756      50.807112    
     46600  -3507.6284      21.66911      -3485.9593      175.12286      165.34162      50.827724    
     46700  -3504.8617      21.784908     -3483.0768      175.04445      165.24695      50.848335    
     46800  -3503.511       21.428921     -3482.0821      174.96637      165.1527       50.868947    
     46900  -3504.2278      21.59125      -3482.6366      174.88548      165.05658      50.889558    
     47000  -3501.3784      20.469692     -3480.9087      174.80583      164.96151      50.910169    
     47100  -3499.5746      21.232462     -3478.3422      174.72273      164.863        50.930781    
     47200  -3498.0612      22.204192     -3475.857       174.64242      164.76677      50.951392    
     47300  -3495.9314      21.56728      -3474.3641      174.55947      164.66717      50.972004    
     47400  -3495.3387      20.717187     -3474.6215      174.47676      164.56708      50.992615    
     47500  -3494.5176      21.293742     -3473.2238      174.39459      164.46703      51.013226    
     47600  -3492.0662      21.151979     -3470.9142      174.31013      164.36481      51.033838    
     47700  -3490.2332      21.78959      -3468.4436      174.22839      164.26335      51.054449    
     47800  -3488.8834      22.261695     -3466.6217      174.14239      164.15655      51.075061    
     47900  -3486.9671      21.828851     -3465.1382      174.06169      164.05403      51.095672    
     48000  -3485.7026      21.752725     -3463.9499      173.97423      163.94468      51.116283    
     48100  -3483.827       21.001189     -3462.8258      173.89333      163.84122      51.136895    
     48200  -3482.3931      20.768757     -3461.6244      173.80367      163.7299       51.157506    
     48300  -3480.4954      20.619111     -3459.8763      173.72116      163.62576      51.178118    
     48400  -3478.1005      21.326327     -3456.7742      173.63087      163.51312      51.198729    
     48500  -3476.1541      21.596587     -3454.5575      173.54644      163.40607      51.21934     
     48600  -3474.2567      20.462342     -3453.7944      173.45524      163.29278      51.239952    
     48700  -3474.0954      20.44032      -3453.6551      173.36872      163.18426      51.260563    
     48800  -3472.8651      20.529738     -3452.3354      173.27869      163.0725       51.281175    
     48900  -3470.8265      20.764625     -3450.0619      173.18622      162.95876      51.301786    
     49000  -3468.7291      20.976491     -3447.7526      173.09758      162.84998      51.322397    
     49100  -3466.83        21.453129     -3445.3769      173.00151      162.73417      51.343009    
     49200  -3465.7199      22.070988     -3443.6489      172.9114       162.62456      51.36362     
     49300  -3464.0105      20.637969     -3443.3725      172.81312      162.50781      51.384232    
     49400  -3463.4265      20.67318      -3442.7533      172.72107      162.39654      51.404843    
     49500  -3460.1474      19.55976      -3440.5876      172.6244       162.28144      51.425455    
     49600  -3458.3999      21.122882     -3437.277       172.52818      162.16479      51.446066    
     49700  -3456.9053      21.485929     -3435.4194      172.43436      162.04961      51.466677    
     49800  -3454.5259      20.194459     -3434.3314      172.33574      161.92995      51.487289    
     49900  -3454.3185      20.97972      -3433.3388      172.24289      161.81596      51.5079      
     50000  -3453.5073      20.720588     -3432.7868      172.1417       161.69277      51.528512    
     50100  -3451.6116      19.280248     -3432.3314      172.04969      161.57575      51.549123    
     50200  -3449.7148      20.498727     -3429.2161      171.95118      161.45264      51.569734    
     50300  -3447.664       21.602441     -3426.0615      171.8554       161.33266      51.590346    
     50400  -3445.5507      21.248724     -3424.302       171.75737      161.21044      51.610957    
     50500  -3444.0735      20.95957      -3423.1139      171.65815      161.08738      51.631569    
     50600  -3443.5999      21.15538      -3422.4445      171.56218      160.9674       51.65218     
     50700  -3441.6628      19.860334     -3421.8024      171.45931      160.84189      51.672791    
     50800  -3439.7431      20.905681     -3418.8374      171.3638       160.72269      51.693403    
     50900  -3437.4053      21.757485     -3415.6478      171.25954      160.59655      51.714014    
     51000  -3435.7468      21.555619     -3414.1912      171.16187      160.47668      51.734626    
     51100  -3435.0081      21.455602     -3413.5525      171.05833      160.35192      51.755237    
     51200  -3433.1853      20.382002     -3412.8033      170.95755      160.23031      51.775848    
     51300  -3431.594       20.754157     -3410.8399      170.85465      160.1073       51.79646     
     51400  -3428.5837      21.909362     -3406.6743      170.75159      159.98457      51.817071    
     51500  -3426.9496      21.811816     -3405.1378      170.65095      159.86233      51.837683    
     51600  -3425.8127      20.910913     -3404.9018      170.54594      159.73672      51.858294    
     51700  -3424.6534      20.886396     -3403.767       170.44678      159.61681      51.878905    
     51800  -3422.9102      20.829829     -3402.0803      170.3398       159.49046      51.899517    
     51900  -3420.0446      20.289172     -3399.7555      170.2411       159.3711       51.920128    
     52000  -3418.6286      22.290308     -3396.3383      170.13493      159.24353      51.94074     
     52100  -3416.7872      21.778093     -3395.0092      170.03675      159.12343      51.961351    
     52200  -3416.436       21.466394     -3394.9696      169.93319      158.99747      51.981962    
     52300  -3414.9476      21.259255     -3393.6884      169.83369      158.8757       52.002574    
     52400  -3412.5848      20.562849     -3392.0219      169.73118      158.74981      52.023185    
     52500  -3411.2779      21.566455     -3389.7114      169.63367      158.62692      52.043797    
     52600  -3408.6557      22.117273     -3386.5385      169.53373      158.5021       52.064408    
     52700  -3407.1588      22.508032     -3384.6508      169.43508      158.37807      52.085019    
     52800  -3406.2679      21.366131     -3384.9018      169.33652      158.25516      52.105631    
     52900  -3405.0439      21.288589     -3383.7553      169.23731      158.13207      52.126242    
     53000  -3402.8611      20.922087     -3381.939       169.14054      158.01273      52.146854    
     53100  -3401.5948      21.488984     -3380.1058      169.03898      157.88985      52.167465    
     53200  -3399.295       21.292515     -3378.0025      168.94337      157.77209      52.188076    
     53300  -3396.5207      20.673417     -3375.8473      168.84281      157.6515       52.208688    
     53400  -3395.4256      21.098744     -3374.3268      168.74643      157.53525      52.229299    
     53500  -3394.754       20.784425     -3373.9696      168.64627      157.41695      52.249911    
     53600  -3392.7686      19.895615     -3372.873       168.55067      157.30287      52.270522    
     53700  -3391.1421      20.704164     -3370.438       168.45228      157.1872       52.291133    
     53800  -3387.9461      21.309121     -3366.637       168.35515      157.07387      52.311745    
     53900  -3387.4212      22.267763     -3365.1534      168.25882      156.96043      52.332356    
     54000  -3386.1843      21.518101     -3364.6662      168.1635       156.84849      52.352968    
     54100  -3385.2717      21.47154      -3363.8002      168.06991      156.73798      52.373579    
     54200  -3383.3941      20.953324     -3362.4408      167.97574      156.62665      52.394191    
     54300  -3381.4106      21.338199     -3360.0724      167.88523      156.51815      52.414802    
     54400  -3378.9231      22.561947     -3356.3612      167.79214      156.40573      52.435413    
     54500  -3375.7787      20.944207     -3354.8345      167.70606      156.29978      52.456025    
     54600  -3376.1891      21.536723     -3354.6524      167.61521      156.18824      52.476636    
     54700  -3374.5287      21.135006     -3353.3937      167.53042      156.08279      52.497248    
     54800  -3372.9411      21.039078     -3351.9021      167.4434       155.97536      52.517859    
     54900  -3371.4451      21.143154     -3350.302       167.35867      155.86979      52.53847     
     55000  -3369.4262      20.763223     -3348.663       167.27684      155.76709      52.559082    
     55100  -3368.3785      21.527522     -3346.851       167.19206      155.66092      52.579693    
     55200  -3366.2478      21.65747      -3344.5904      167.11271      155.56157      52.600305    
     55300  -3364.3442      21.876846     -3342.4674      167.02823      155.4596       52.620916    
     55400  -3362.8539      21.391896     -3341.462       166.95043      155.36408      52.641527    
     55500  -3360.999       19.906058     -3341.093       166.86751      155.26461      52.662139    
     55600  -3359.9794      20.495759     -3339.4836      166.7904       155.17091      52.68275     
     55700  -3357.7758      21.592863     -3336.183       166.71082      155.07662      52.703362    
     55800  -3355.177       21.939011     -3333.238       166.6311       154.98451      52.723973    
     55900  -3352.9126      20.881709     -3332.0309      166.55378      154.89582      52.744584    
     56000  -3353.0028      21.649129     -3331.3537      166.4758       154.80594      52.765196    
     56100  -3350.5466      20.157307     -3330.3893      166.40204      154.72064      52.785807    
     56200  -3350.0256      21.461163     -3328.5644      166.32404      154.63217      52.806419    
     56300  -3346.3828      20.824669     -3325.5582      166.25347      154.54965      52.82703     
     56400  -3345.7148      23.377089     -3322.3377      166.17947      154.46357      52.847641    
     56500  -3343.2365      21.567031     -3321.6695      166.11065      154.38118      52.868253    
     56600  -3340.0803      18.961215     -3321.1191      166.04288      154.2986       52.888864    
     56700  -3340.0855      20.298056     -3319.7874      165.97433      154.21617      52.909476    
     56800  -3339.2472      21.045673     -3318.2015      165.91054      154.1367       52.930087    
     56900  -3337.0835      20.558462     -3316.5251      165.84518      154.05551      52.950698    
     57000  -3335.7877      21.599935     -3314.1877      165.78319      153.97712      52.97131     
     57100  -3332.9754      21.406629     -3311.5687      165.72067      153.89872      52.991921    
     57200  -3331.836       22.186963     -3309.649       165.66106      153.82305      53.012533    
     57300  -3330.1944      20.612498     -3309.5819      165.60139      153.74691      53.033144    
     57400  -3329.3495      20.92494      -3308.4245      165.54399      153.67423      53.053755    
     57500  -3326.532       20.168378     -3306.3636      165.48386      153.60127      53.074367    
     57600  -3325.7282      22.192063     -3303.5362      165.42738      153.53313      53.094978    
     57700  -3323.2315      23.217725     -3300.0138      165.36634      153.46314      53.11559     
     57800  -3320.3146      22.769649     -3297.5449      165.30902      153.39788      53.136201    
     57900  -3319.6808      21.546797     -3298.134       165.25255      153.33483      53.156812    
     58000  -3318.5129      21.293461     -3297.2194      165.19433      153.26984      53.177424    
     58100  -3317.6453      21.641222     -3296.004       165.14192      153.21084      53.198035    
     58200  -3315.786       21.090495     -3294.6955      165.08277      153.14594      53.218647    
     58300  -3313.1099      20.638134     -3292.4718      165.03283      153.08967      53.239258    
     58400  -3311.0393      21.917753     -3289.1215      164.978        153.02692      53.25987     
     58500  -3309.1593      22.350595     -3286.8087      164.92909      152.96892      53.280481    
     58600  -3307.2624      20.589921     -3286.6724      164.88009      152.9109       53.301092    
     58700  -3306.5928      20.803884     -3285.7889      164.83108      152.85273      53.321704    
     58800  -3303.2437      19.561379     -3283.6823      164.7858       152.79762      53.342315    
     58900  -3301.862       20.659264     -3281.2027      164.73765      152.73858      53.362927    
     59000  -3300.5737      21.66824      -3278.9055      164.69442      152.68484      53.383538    
     59100  -3298.5723      20.840477     -3277.7318      164.64924      152.63007      53.404149    
     59200  -3297.3641      19.960734     -3277.4034      164.60508      152.57581      53.424761    
     59300  -3296.4286      20.694922     -3275.7337      164.56468      152.52417      53.445372    
     59400  -3294.0586      21.186855     -3272.8718      164.52292      152.47069      53.465984    
     59500  -3290.9182      21.903151     -3269.0151      164.48179      152.41833      53.486595    
     59600  -3290.073       22.620699     -3267.4523      164.44289      152.36819      53.507206    
     59700  -3287.8224      21.17078      -3266.6516      164.40294      152.31723      53.527818    
     59800  -3286.3878      20.624876     -3265.763       164.36535      152.26996      53.548429    
     59900  -3285.8351      21.281067     -3264.554       164.32567      152.22224      53.569041    
     60000  -3283.6571      20.840075     -3262.817       164.28708      152.17597      53.589652    
     60100  -3281.5689      21.014915     -3260.554       164.24984      152.13127      53.610263    
     60200  -3278.4218      21.030357     -3257.3915      164.20972      152.08655      53.630875    
     60300  -3278.0679      22.681007     -3255.3869      164.17061      152.04453      53.651486    
     60400  -3276.672       21.567361     -3255.1047      164.13254      152.0048       53.672098    
     60500  -3275.5793      21.475891     -3254.1034      164.09208      151.96393      53.692709    
     60600  -3272.4759      20.44211      -3252.0338      164.05591      151.9264       53.71332     
     60700  -3270.7187      21.073355     -3249.6454      164.01554      151.88591      53.733932    
     60800  -3268.1263      21.664297     -3246.462       163.98055      151.8502       53.754543    
     60900  -3265.8145      22.884092     -3242.9304      163.94297      151.81017      53.775155    
     61000  -3264.5502      22.041568     -3242.5087      163.90972      151.77327      53.795766    
     61100  -3264.0894      22.286322     -3241.8031      163.87634      151.73581      53.816377    
     61200  -3262.3301      21.435308     -3240.8948      163.84185      151.69595      53.836989    
     61300  -3260.7985      20.979102     -3239.8194      163.81204      151.6591       53.8576      
     61400  -3258.3557      20.360863     -3237.9948      163.78169      151.61992      53.878212    
     61500  -3256.1522      20.678563     -3235.4736      163.75104      151.58067      53.898823    
     61600  -3253.9684      21.93301      -3232.0354      163.72373      151.5431       53.919434    
     61700  -3252.4058      22.374702     -3230.0311      163.69559      151.50415      53.940046    
     61800  -3250.7208      21.021513     -3229.6993      163.66947      151.46642      53.960657    
     61900  -3249.3904      21.021856     -3228.3686      163.64209      151.4285       53.981269    
     62000  -3247.5138      21.135005     -3226.3788      163.61577      151.3913       54.00188     
     62100  -3244.9901      20.890607     -3224.0995      163.58985      151.35577      54.022491    
     62200  -3242.7872      20.630303     -3222.1569      163.56244      151.31998      54.043103    
     62300  -3242.8087      21.430285     -3221.3784      163.53535      151.28607      54.063714    
     62400  -3241.0108      20.873194     -3220.1377      163.50776      151.25334      54.084326    
     62500  -3237.944       20.049793     -3217.8942      163.47942      151.22104      54.104937    
     62600  -3235.8269      21.907505     -3213.9194      163.45061      151.18996      54.125549    
     62700  -3232.5877      21.184526     -3211.4032      163.42213      151.15964      54.14616     
     62800  -3232.3404      22.044778     -3210.2956      163.39292      151.12879      54.166771    
     62900  -3229.826       20.667871     -3209.1581      163.36572      151.10114      54.187383    
     63000  -3227.6299      20.122904     -3207.507       163.33538      151.07189      54.207994    
     63100  -3226.6468      20.894338     -3205.7525      163.30815      151.04578      54.228606    
     63200  -3224.8824      20.49879      -3204.3836      163.27739      151.01559      54.249217    
     63300  -3223.809       19.954567     -3203.8544      163.25123      150.99015      54.269828    
     63400  -3222.3979      20.335357     -3202.0625      163.22386      150.96275      54.29044     
     63500  -3218.5213      20.541564     -3197.9797      163.19628      150.93269      54.311051    
     63600  -3216.8238      21.425299     -3195.3985      163.17163      150.90642      54.331663    
     63700  -3214.3064      20.668881     -3193.6375      163.14498      150.87709      54.352274    
     63800  -3214.1635      21.726546     -3192.437       163.12304      150.84868      54.372885    
     63900  -3211.9824      20.489223     -3191.4931      163.09882      150.81751      54.393497    
     64000  -3210.0447      20.61854      -3189.4261      163.07784      150.78932      54.414108    
     64100  -3206.5851      21.756637     -3184.8284      163.05421      150.75746      54.43472     
     64200  -3204.2124      21.957128     -3182.2553      163.03354      150.72865      54.455331    
     64300  -3203.8269      22.202945     -3181.624       163.01207      150.69955      54.475942    
     64400  -3202.9587      22.509965     -3180.4487      162.98975      150.66981      54.496554    
     64500  -3200.8198      22.241475     -3178.5783      162.96976      150.64279      54.517165    
     64600  -3198.0596      21.429925     -3176.6296      162.94715      150.61299      54.537777    
     64700  -3196.2427      21.205405     -3175.0373      162.92663      150.58675      54.558388    
     64800  -3194.2141      20.379141     -3173.8349      162.90336      150.55902      54.578999    
     64900  -3193.156       21.502726     -3171.6532      162.88059      150.53172      54.599611    
     65000  -3188.6953      21.176709     -3167.5185      162.85864      150.50688      54.620222    
     65100  -3187.1139      22.443237     -3164.6707      162.83271      150.48014      54.640834    
     65200  -3185.677       22.444612     -3163.2324      162.81073      150.45676      54.661445    
     65300  -3182.9849      21.214878     -3161.77        162.78559      150.43153      54.682056    
     65400  -3181.4482      21.651887     -3159.7963      162.76043      150.40746      54.702668    
     65500  -3178.8111      20.959813     -3157.8513      162.73708      150.38525      54.723279    
     65600  -3176.8906      20.625205     -3156.2653      162.71107      150.36041      54.743891    
     65700  -3176.3313      20.264028     -3156.0673      162.6883       150.33828      54.764502    
     65800  -3173.4276      19.647096     -3153.7805      162.66407      150.3144       54.785113    
     65900  -3169.9464      19.751099     -3150.1953      162.63973      150.28951      54.805725    
     66000  -3168.2013      21.01337      -3147.1879      162.61893      150.26737      54.826336    
     66100  -3166.7146      21.977051     -3144.7376      162.59457      150.23986      54.846948    
     66200  -3164.8375      21.584736     -3143.2527      162.57389      150.2153       54.867559    
     66300  -3164.6349      22.138796     -3142.4961      162.5541       150.19105      54.88817     
     66400  -3161.2233      20.655652     -3140.5676      162.53045      150.16179      54.908782    
     66500  -3157.6829      20.032192     -3137.6507      162.51418      150.13861      54.929393    
     66600  -3155.6669      21.306356     -3134.3606      162.49137      150.11003      54.950005    
     66700  -3151.9044      20.550052     -3131.3544      162.47197      150.08364      54.970616    
     66800  -3151.371       22.076073     -3129.2949      162.45421      150.05874      54.991227    
     66900  -3149.9561      21.032226     -3128.9238      162.4315       150.0308       55.011839    
     67000  -3147.9245      21.306676     -3126.6178      162.41321      150.00662      55.03245     
     67100  -3144.0819      20.500386     -3123.5815      162.39138      149.97955      55.053062    
     67200  -3142.6499      22.566692     -3120.0832      162.37062      149.95578      55.073673    
     67300  -3138.6486      21.843792     -3116.8049      162.34815      149.93085      55.094285    
     67400  -3137.4806      21.621743     -3115.8589      162.32615      149.90678      55.114896    
     67500  -3136.1598      21.546153     -3114.6137      162.30407      149.88432      55.135507    
     67600  -3133.4078      20.575643     -3112.8321      162.27853      149.85973      55.156119    
     67700  -3131.5639      20.898857     -3110.6651      162.2577       149.83851      55.17673     
     67800  -3128.7156      20.191076     -3108.5246      162.23169      149.8138       55.197342    
     67900  -3127.9395      20.659109     -3107.2804      162.20761      149.79209      55.217953    
     68000  -3125.982       20.624314     -3105.3577      162.18539      149.77049      55.238564    
     68100  -3121.7442      20.598316     -3101.1458      162.15928      149.74499      55.259176    
     68200  -3119.4748      22.375236     -3097.0996      162.13794      149.72489      55.279787    
     68300  -3117.5632      22.487059     -3095.0761      162.11298      149.69949      55.300399    
     68400  -3114.8445      21.138935     -3093.7056      162.09069      149.67555      55.32101     
[...]
     81600  -3819.8095      18.015927     -3801.7936      156.1388       144.589        58.041715    
     81700  -3818.8516      20.458897     -3798.3927      156.03057      144.54154      58.062327    
     81800  -3816.0782      22.533789     -3793.5444      155.92562      144.49062      58.082938    
     81900  -3815.7104      24.221639     -3791.4888      155.82684      144.43958      58.10355     
     82000  -3815.409       21.44744      -3793.9616      155.72986      144.38035      58.124161    
     82100  -3817.2089      19.790379     -3797.4185      155.63127      144.31594      58.144772    
     82200  -3818.45        19.725821     -3798.7242      155.53061      144.24893      58.165384    
     82300  -3817.943       20.612003     -3797.3309      155.42935      144.17601      58.185995    
     82400  -3816.3336      21.739192     -3794.5944      155.32337      144.11051      58.206607    
     82500  -3815.0297      22.252852     -3792.7769      155.20572      144.04876      58.227218    
     82600  -3816.4168      23.440929     -3792.9759      155.07805      143.99392      58.247829    
     82700  -3815.2362      20.216013     -3795.0201      154.94327      143.94026      58.268441    
     82800  -3815.9304      19.623802     -3796.3066      154.81158      143.89106      58.289052    
     82900  -3816.9289      21.350217     -3795.5787      154.67402      143.83816      58.309664    
     83000  -3814.6454      21.510163     -3793.1352      154.53437      143.79001      58.330275    
     83100  -3812.8875      21.862646     -3791.0248      154.39574      143.73962      58.350886    
     83200  -3813.8396      22.657308     -3791.1823      154.25927      143.67962      58.371498    
     83300  -3814.3656      20.897881     -3793.4677      154.13468      143.62149      58.392109    
     83400  -3815.1546      20.309173     -3794.8454      154.00892      143.55129      58.412721    
     83500  -3814.6823      20.257062     -3794.4253      153.88768      143.47399      58.433332    
     83600  -3814.1045      21.552917     -3792.5516      153.77509      143.39598      58.453943    
     83700  -3813.3168      22.534443     -3790.7824      153.65541      143.31055      58.474555    
     83800  -3812.2585      21.539787     -3790.7187      153.53096      143.22664      58.495166    
     83900  -3813.4022      21.411716     -3791.9905      153.3984       143.14809      58.515778    
     84000  -3814.1571      20.264287     -3793.8928      153.26167      143.0748       58.536389    
     84100  -3814.2526      20.195469     -3794.0571      153.12075      143.00333      58.557       
     84200  -3812.9287      20.791158     -3792.1375      152.96948      142.93074      58.577612    
     84300  -3812.9002      23.083209     -3789.817       152.81703      142.86268      58.598223    
     84400  -3811.3591      22.106929     -3789.2522      152.65995      142.80049      58.618835    
     84500  -3811.7783      21.383039     -3790.3953      152.49832      142.73643      58.639446    
     84600  -3812.9239      20.897493     -3792.0264      152.33887      142.67361      58.660058    
     84700  -3811.9014      19.881775     -3792.0197      152.18176      142.60641      58.680669    
     84800  -3811.796       21.632415     -3790.1636      152.02675      142.53145      58.70128     
     84900  -3809.578       21.450564     -3788.1274      151.88154      142.45946      58.721892    
     85000  -3810.4731      22.649143     -3787.824       151.73821      142.38455      58.742503    
     85100  -3810.7577      21.021207     -3789.7365      151.59671      142.30502      58.763115    
     85200  -3811.8154      20.197472     -3791.6179      151.45921      142.22408      58.783726    
     85300  -3811.6735      19.918882     -3791.7546      151.32158      142.14032      58.804337    
     85400  -3810.8749      21.00261      -3789.8723      151.18511      142.04953      58.824949    
     85500  -3808.7246      21.391935     -3787.3327      151.04593      141.95807      58.84556     
     85600  -3808.3484      22.584319     -3785.7641      150.90397      141.87246      58.866172    
     85700  -3807.2587      21.122014     -3786.1367      150.75883      141.79207      58.886783    
     85800  -3808.766       20.882492     -3787.8835      150.605        141.71599      58.907394    
     85900  -3809.2136      20.035969     -3789.1776      150.4458       141.64723      58.928006    
     86000  -3809.7261      20.894699     -3788.8314      150.2768       141.58117      58.948617    
     86100  -3808.9735      21.274363     -3787.6991      150.11014      141.51965      58.969229    
     86200  -3809.1715      22.444187     -3786.7273      149.94224      141.45131      58.98984     
     86300  -3807.6142      21.275974     -3786.3382      149.77381      141.38014      59.010451    
     86400  -3806.903       20.236146     -3786.6669      149.61313      141.31255      59.031063    
     86500  -3807.4999      20.528315     -3786.9716      149.45721      141.23669      59.051674    
     86600  -3807.7725      21.134958     -3786.6376      149.30962      141.15549      59.072286    
     86700  -3806.5111      20.799677     -3785.7115      149.1682       141.07697      59.092897    
     86800  -3805.7846      20.645534     -3785.139       149.02683      140.99339      59.113508    
     86900  -3806.3212      21.066373     -3785.2548      148.89019      140.91113      59.13412     
     87000  -3806.282       20.52538      -3785.7566      148.75582      140.82582      59.154731    
     87100  -3806.9887      21.045372     -3785.9433      148.62066      140.7406       59.175343    
     87200  -3805.8083      20.619778     -3785.1886      148.48563      140.65982      59.195954    
     87300  -3805.5312      21.447846     -3784.0833      148.34593      140.57797      59.216565    
     87400  -3805.6313      21.946189     -3783.6851      148.2035       140.51238      59.237177    
     87500  -3804.5661      20.327358     -3784.2388      148.05435      140.44561      59.257788    
     87600  -3805.405       20.671405     -3784.7336      147.9056       140.37652      59.2784      
     87700  -3805.8061      21.008062     -3784.7981      147.76127      140.31815      59.299011    
     87800  -3805.2148      21.025984     -3784.1888      147.6141       140.24926      59.319622    
     87900  -3804.8119      21.641411     -3783.1705      147.47075      140.1845       59.340234    
     88000  -3803.377       21.032828     -3782.3441      147.32759      140.12128      59.360845    
     88100  -3803.3732      21.036382     -3782.3368      147.19014      140.05589      59.381457    
     88200  -3804.5672      21.719377     -3782.8479      147.05756      139.98681      59.402068    
     88300  -3803.7771      20.689628     -3783.0875      146.92626      139.91514      59.422679    
     88400  -3803.534       21.098361     -3782.4356      146.80111      139.84322      59.443291    
     88500  -3802.0954      20.711015     -3781.3844      146.67857      139.76975      59.463902    
     88600  -3802.5954      21.711753     -3780.8837      146.55882      139.69865      59.484514    
     88700  -3801.3362      20.302628     -3781.0336      146.43532      139.62885      59.505125    
     88800  -3802.846       21.310787     -3781.5352      146.31161      139.56046      59.525737    
     88900  -3803.2147      21.219801     -3781.9949      146.19274      139.49988      59.546348    
     89000  -3802.8168      20.811315     -3782.0055      146.07166      139.4361       59.566959    
     89100  -3802.3912      21.256453     -3781.1348      145.95102      139.37447      59.587571    
     89200  -3801.9569      22.106809     -3779.8501      145.83397      139.31841      59.608182    
     89300  -3801.1993      22.024988     -3779.1743      145.71379      139.2579       59.628794    
     89400  -3800.7379      21.085372     -3779.6525      145.59936      139.20505      59.649405    
     89500  -3801.8334      21.431784     -3780.4016      145.48659      139.14875      59.670016    
     89600  -3801.7186      21.261152     -3780.4575      145.37238      139.0873       59.690628    
     89700  -3801.6709      22.195916     -3779.4749      145.26563      139.03164      59.711239    
     89800  -3800.4555      22.00451      -3778.451       145.16112      138.97066      59.731851    
     89900  -3799.6143      21.512966     -3778.1013      145.05589      138.90781      59.752462    
     90000  -3799.9959      21.631362     -3778.3645      144.95587      138.85489      59.773073    
     90100  -3800.5137      21.582714     -3778.931       144.85179      138.79739      59.793685    
     90200  -3799.7523      20.489832     -3779.2625      144.74796      138.74043      59.814296    
     90300  -3798.7617      20.360859     -3778.4008      144.64895      138.69291      59.834908    
     90400  -3798.1128      21.490068     -3776.6228      144.55081      138.63965      59.855519    
     90500  -3797.8025      22.17062      -3775.6319      144.45339      138.59195      59.87613     
     90600  -3797.2517      21.080511     -3776.1712      144.36021      138.54726      59.896742    
     90700  -3798.6488      21.074427     -3777.5744      144.26207      138.49652      59.917353    
     90800  -3798.7623      20.395099     -3778.3672      144.1698       138.4524       59.937965    
     90900  -3797.2357      19.494905     -3777.7408      144.07744      138.40825      59.958576    
     91000  -3796.8086      20.706472     -3776.1021      143.98597      138.36069      59.979187    
     91100  -3795.8632      21.416708     -3774.4465      143.90199      138.31824      59.999799    
     91200  -3795.7611      21.545987     -3774.2151      143.81471      138.26606      60.02041     
     91300  -3796.3124      20.950547     -3775.3618      143.73471      138.21897      60.041022    
     91400  -3796.7344      20.192553     -3776.5419      143.65886      138.17288      60.061633    
     91500  -3797.0799      20.498749     -3776.5812      143.57788      138.12138      60.082244    
     91600  -3796.8011      21.378556     -3775.4226      143.49997      138.07699      60.102856    
     91700  -3795.3578      21.737994     -3773.6199      143.42303      138.02854      60.123467    
     91800  -3794.8897      22.12106      -3772.7687      143.34841      137.98576      60.144079    
     91900  -3795.4463      21.94528      -3773.501       143.27548      137.94673      60.16469     
     92000  -3796.1323      21.490448     -3774.6418      143.19139      137.90704      60.185301    
     92100  -3795.1847      20.065062     -3775.1197      143.11532      137.87888      60.205913    
     92200  -3795.8227      21.391304     -3774.4314      143.03599      137.84454      60.226524    
     92300  -3794.355       21.454335     -3772.9007      142.9559       137.80907      60.247136    
     92400  -3793.6416      22.086805     -3771.5548      142.88356      137.78048      60.267747    
     92500  -3793.1182      21.676163     -3771.4421      142.81095      137.74117      60.288358    
     92600  -3794.606       22.179775     -3772.4262      142.74533      137.70282      60.30897     
     92700  -3793.2722      19.932393     -3773.3398      142.68381      137.6641       60.329581    
     92800  -3794.1539      21.116811     -3773.0371      142.62123      137.61921      60.350193    
     92900  -3793.0861      21.183309     -3771.9028      142.56519      137.57998      60.370804    
     93000  -3792.4625      21.842091     -3770.6204      142.50807      137.53675      60.391416    
     93100  -3791.9186      21.857585     -3770.061       142.4467       137.49274      60.412027    
     93200  -3791.4659      20.837962     -3770.6279      142.38926      137.45295      60.432638    
     93300  -3792.7097      21.337514     -3771.3722      142.32409      137.41627      60.45325     
     93400  -3792.5492      20.994816     -3771.5544      142.25964      137.38768      60.473861    
     93500  -3790.623       19.89944      -3770.7236      142.19427      137.36034      60.494473    
     93600  -3790.2383      20.92981      -3769.3085      142.12749      137.33263      60.515084    
     93700  -3791.4649      22.691921     -3768.7729      142.06451      137.30417      60.535695    
     93800  -3790.2741      20.948197     -3769.3259      142.00118      137.27478      60.556307    
     93900  -3791.6612      21.701434     -3769.9598      141.94204      137.24872      60.576918    
     94000  -3790.4812      20.507476     -3769.9737      141.88244      137.219        60.59753     
     94100  -3789.9037      20.910389     -3768.9933      141.82564      137.18717      60.618141    
     94200  -3789.5253      21.788029     -3767.7373      141.77329      137.15751      60.638752    
     94300  -3788.6643      21.61857      -3767.0457      141.72332      137.123        60.659364    
     94400  -3787.5345      20.22968      -3767.3049      141.6715       137.08725      60.679975    
     94500  -3788.6631      20.523473     -3768.1396      141.62784      137.0546       60.700587    
     94600  -3788.9509      20.217364     -3768.7336      141.57915      137.01732      60.721198    
     94700  -3789.1149      20.692773     -3768.4222      141.53011      136.98129      60.741809    
     94800  -3786.8725      20.024953     -3766.8476      141.47971      136.95012      60.762421    
     94900  -3786.5999      21.569964     -3765.03        141.42456      136.9216       60.783032    
     95000  -3786.3137      21.78887      -3764.5248      141.37149      136.90074      60.803644    
     95100  -3786.611       21.09021      -3765.5208      141.31463      136.87424      60.824255    
     95200  -3787.2092      20.640131     -3766.5691      141.25676      136.85132      60.844866    
     95300  -3787.6178      20.741601     -3766.8762      141.20357      136.83086      60.865478    
     95400  -3786.613       20.726745     -3765.8863      141.1484       136.80387      60.886089    
     95500  -3785.7309      21.353017     -3764.3778      141.09969      136.7795       60.906701    
     95600  -3784.9934      21.816466     -3763.177       141.05408      136.75445      60.927312    
     95700  -3785.362       22.27361      -3763.0884      141.00648      136.71938      60.947923    
     95800  -3784.5064      20.297998     -3764.2084      140.96485      136.69027      60.968535    
     95900  -3786.7251      21.412938     -3765.3122      140.92301      136.65594      60.989146    
     96000  -3785.3267      20.214844     -3765.1119      140.88133      136.62048      61.009758    
     96100  -3784.8101      21.348457     -3763.4616      140.842        136.58921      61.030369    
     96200  -3783.372       21.451906     -3761.9201      140.79838      136.55281      61.05098     
     96300  -3782.8939      21.46438      -3761.4295      140.75149      136.52511      61.071592    
     96400  -3782.7259      20.872007     -3761.8539      140.70383      136.50221      61.092203    
     96500  -3783.0064      20.417139     -3762.5893      140.65206      136.47498      61.112815    
     96600  -3783.3047      20.59191      -3762.7128      140.60153      136.45656      61.133426    
     96700  -3783.0898      21.062528     -3762.0273      140.55053      136.43767      61.154037    
     96800  -3782.17        21.338354     -3760.8316      140.50084      136.41369      61.174649    
     96900  -3780.8006      20.924993     -3759.8756      140.45319      136.39398      61.19526     
     97000  -3780.353       20.45685      -3759.8962      140.40609      136.37149      61.215872    
     97100  -3780.5877      19.808277     -3760.7794      140.36258      136.34479      61.236483    
     97200  -3781.9207      20.769187     -3761.1515      140.32182      136.32082      61.257095    
     97300  -3781.095       20.761537     -3760.3334      140.28089      136.2906       61.277706    
     97400  -3779.2136      20.493668     -3758.72        140.24061      136.26047      61.298317    
     97500  -3778.4162      20.804548     -3757.6116      140.2007       136.23126      61.318929    
     97600  -3779.0955      21.247312     -3757.8482      140.15936      136.19597      61.33954     
     97700  -3779.9454      21.065382     -3758.88        140.12033      136.16739      61.360152    
     97800  -3779.4198      20.213561     -3759.2062      140.07788      136.13906      61.380763    
     97900  -3778.8354      20.565886     -3758.2696      140.03343      136.11019      61.401374    
     98000  -3777.1961      20.501827     -3756.6942      139.98846      136.08946      61.421986    
     98100  -3777.9015      22.481333     -3755.4201      139.94195      136.06675      61.442597    
     98200  -3777.1252      21.719717     -3755.4055      139.8929       136.04143      61.463209    
     98300  -3778.2392      21.458481     -3756.7807      139.84588      136.02088      61.48382     
     98400  -3778.3515      20.420948     -3757.9306      139.79888      135.99973      61.504431    
     98500  -3777.066       19.680995     -3757.385       139.75354      135.97109      61.525043    
     98600  -3777.0217      21.814951     -3755.2068      139.71049      135.94931      61.545654    
     98700  -3775.1471      22.070571     -3753.0765      139.6695       135.92464      61.566266    
     98800  -3774.9356      22.2874       -3752.6482      139.6277       135.89127      61.586877    
     98900  -3774.534       20.738125     -3753.7958      139.5903       135.86395      61.607488    
     99000  -3775.8148      20.631589     -3755.1832      139.55235      135.83141      61.6281      
     99100  -3775.2213      19.640075     -3755.5812      139.51269      135.79843      61.648711    
     99200  -3774.5697      20.311193     -3754.2585      139.47332      135.76784      61.669323    
     99300  -3773.7402      21.65709      -3752.0831      139.43044      135.73812      61.689934    
     99400  -3772.9622      22.452235     -3750.51        139.38696      135.71269      61.710545    
     99500  -3779.6758      25.631043     -3754.0447      139.34111      135.69221      61.731157    
     99600  -3784.1736      22.257923     -3761.9157      139.29294      135.67282      61.751768    
     99700  -3785.1585      18.986062     -3766.1725      139.24311      135.6521       61.77238     
     99800  -3785.4995      19.125092     -3766.3744      139.19251      135.63235      61.792991    
     99900  -3782.9677      19.655184     -3763.3125      139.142        135.61268      61.813602    
    100000  -3781.5812      22.197156     -3759.384       139.09486      135.59183      61.834214    
Loop time of 46620.3 on 12 procs for 100000 steps with 544 atoms

Performance: 0.185 ns/day, 129.501 hours/ns, 2.145 timesteps/s, 1.167 katom-step/s
42.3% CPU use with 12 MPI tasks x 1 OpenMP threads

MPI task timing breakdown:
Section |  min time  |  avg time  |  max time  |%varavg| %total
---------------------------------------------------------------
Pair    | 0.41391    | 99.832     | 622.49     |2226.7 |  0.21
Neigh   | 0.0015166  | 0.068749   | 0.4041     |  56.3 |  0.00
Comm    | 26.291     | 325.74     | 1872.7     |3695.5 |  0.70
Output  | 204.98     | 210.8      | 216.19     |  24.1 |  0.45
Modify  | 37934      | 40003      | 40422      | 444.0 | 85.80
Other   |            | 5981       |            |       | 12.83

Nlocal:        45.3333 ave         274 max           0 min
Histogram: 10 0 0 0 0 0 0 0 0 2
Nghost:             67 ave         404 max           0 min
Histogram: 10 0 0 0 0 0 0 0 0 2
Neighs:              0 ave           0 max           0 min
Histogram: 12 0 0 0 0 0 0 0 0 0

Total # of neighbors = 0
Ave neighs/atom = 0
Neighbor list builds = 203
Dangerous builds = 0
Total wall time: 12:57:18
