LAMMPS (2 Aug 2023 - Update 3)
OMP_NUM_THREADS environment is not set. Defaulting to 1 thread. (src/comm.cpp:98)
  using 1 OpenMP thread(s) per MPI task
Reading data file ...
  orthogonal box = (-100 -100 -2.331251) to (100 100 38.891558)
  3 by 4 by 1 MPI processor grid
  reading atoms ...
  920 atoms
  read_data CPU = 0.004 seconds
Replication is creating a 1x1x5 = 5 times larger system...
  orthogonal box = (-100 -100 -2.331251) to (100 100 203.78279)
  2 by 2 by 3 MPI processor grid
  4600 atoms
  replicate CPU = 0.001 seconds
System init for write_data ...
WARNING: Communication cutoff is 0.0. No ghost atoms will be generated. Atoms may get lost. (src/comm_brick.cpp:210)
Reading airebo potential file CH.airebo with DATE: 2011-10-25
Reading airebo potential file CH.airebo with DATE: 2011-10-25
Neighbor list info ...
  update: every = 1 steps, delay = 0 steps, check = yes
  max neighbors/atom: 2000, page size: 100000
  master list distance cutoff = 13.2
  ghost atom cutoff = 13.2
  binsize = 6.6, bins = 31 31 32
  5 neighbor lists, perpetual/occasional/extra = 5 0 0
  (1) pair airebo, perpetual, skip from (4)
      attributes: full, newton on, ghost
      pair build: skip/ghost
      stencil: none
      bin: none
  (2) pair airebo, perpetual, skip from (4)
      attributes: full, newton on, ghost
      pair build: skip/ghost
      stencil: none
      bin: none
  (3) pair lj/cut, perpetual, skip from (5)
      attributes: half, newton on, cut 13
      pair build: skip
      stencil: none
      bin: none
  (4) neighbor class addition, perpetual
      attributes: full, newton on, ghost
      pair build: full/bin/ghost
      stencil: full/ghost/bin/3d
      bin: standard
  (5) neighbor class addition, perpetual
      attributes: half, newton on, cut 13
      pair build: half/bin/atomonly/newton
      stencil: half/bin/3d
      bin: standard
Setting up sd style minimization ...
  Unit style    : metal
  Current step  : 0
Per MPI rank memory allocation (min/avg/max) = 9.7 | 9.701 | 9.702 Mbytes
   Step          Temp          E_pair         E_mol          TotEng         Press     
         0   0             -33351.952      0             -33351.952      322.36972    
         4   0             -33439.804      0             -33439.804      67.774962    
Loop time of 0.0662769 on 12 procs for 4 steps with 4600 atoms

93.5% CPU use with 12 MPI tasks x 1 OpenMP threads

Minimization stats:
  Stopping criterion = energy tolerance
  Energy initial, next-to-last, final = 
     -33351.9524449719  -33437.7822148371  -33439.8044365938
  Force two-norm initial, final = 97.561695 14.854841
  Force max component initial, final = 3.4211508 0.48894053
  Final line search alpha, max atom move = 0.14095332 0.068917792
  Iterations, force evaluations = 4 8

MPI task timing breakdown:
Section |  min time  |  avg time  |  max time  |%varavg| %total
---------------------------------------------------------------
Pair    | 0.045182   | 0.056898   | 0.06514    |   2.7 | 85.85
Neigh   | 0          | 0          | 0          |   0.0 |  0.00
Comm    | 0.00081794 | 0.0090309  | 0.020698   |   6.7 | 13.63
Output  | 0          | 0          | 0          |   0.0 |  0.00
Modify  | 0          | 0          | 0          |   0.0 |  0.00
Other   |            | 0.000348   |            |       |  0.53

Nlocal:        383.333 ave         415 max         354 min
Histogram: 3 0 0 0 5 1 0 0 0 3
Nghost:        1736.67 ave        1778 max        1694 min
Histogram: 1 0 2 2 0 2 3 0 1 1
Neighs:              0 ave           0 max           0 min
Histogram: 12 0 0 0 0 0 0 0 0 0

Total # of neighbors = 0
Ave neighs/atom = 0
Neighbor list builds = 0
Dangerous builds = 0
Setting up Verlet run ...
  Unit style    : metal
  Current step  : 4
  Time step     : 0.001
Per MPI rank memory allocation (min/avg/max) = 10.33 | 10.33 | 10.33 Mbytes
   Step          Temp          E_pair         E_mol          TotEng         Press          Volume    
         4   300           -33439.804      0             -33261.464      90.879688      8244561.8    
Loop time of 3.29687e-05 on 12 procs for 0 steps with 4600 atoms

71.0% CPU use with 12 MPI tasks x 1 OpenMP threads

MPI task timing breakdown:
Section |  min time  |  avg time  |  max time  |%varavg| %total
---------------------------------------------------------------
Pair    | 0          | 0          | 0          |   0.0 |  0.00
Neigh   | 0          | 0          | 0          |   0.0 |  0.00
Comm    | 0          | 0          | 0          |   0.0 |  0.00
Output  | 0          | 0          | 0          |   0.0 |  0.00
Modify  | 0          | 0          | 0          |   0.0 |  0.00
Other   |            | 3.297e-05  |            |       |100.00

Nlocal:        383.333 ave         386 max         381 min
Histogram: 1 0 2 0 4 0 3 0 1 1
Nghost:        1736.67 ave        1753 max        1721 min
Histogram: 4 0 0 0 2 2 0 0 0 4
Neighs:              0 ave           0 max           0 min
Histogram: 12 0 0 0 0 0 0 0 0 0

Total # of neighbors = 0
Ave neighs/atom = 0
Neighbor list builds = 0
Dangerous builds = 0
WARNING: New thermo_style command, previous thermo_modify settings will be lost (src/output.cpp:903)
WARNING: Dump 2 includes no atom IDs and is not sorted by ID. This may complicate post-processing tasks or visualization (src/dump.cpp:221)
Setting up Verlet run ...
  Unit style    : metal
  Current step  : 0
  Time step     : 0.001
Per MPI rank memory allocation (min/avg/max) = 11.83 | 11.83 | 11.83 Mbytes
   Step         PotEng         KinEng         TotEng           Lx             Ly             Lz      
         0  -33439.804      178.34022     -33261.464      200            200            206.11405    
       100  -33335.477      89.056507     -33246.421      200.00285      200.00532      206.2171     
       200  -33342.238      116.91968     -33225.318      199.99769      200.0037       206.32016    
       300  -33321.956      121.87669     -33200.079      199.99779      200.00826      206.42322    
       400  -33308.213      135.37493     -33172.838      199.99458      200.00884      206.52627    
       500  -33299.042      154.15151     -33144.89       199.99235      200.00916      206.62933    
       600  -33286.295      167.97385     -33118.321      199.99486      200.01132      206.73239    
       700  -33276.794      181.12327     -33095.671      199.98972      200.00576      206.83544    
       800  -33268.12       187.50468     -33080.615      199.99432      200.01046      206.9385     
       900  -33269.448      191.74439     -33077.704      199.98716      200.00445      207.04156    
      1000  -33270.919      184.03835     -33086.881      199.98888      200.00962      207.14462    
      1100  -33274.418      177.39787     -33097.02       199.98054      200.00568      207.24767    
      1200  -33274.886      175.02205     -33099.864      199.98041      200.01004      207.35073    
      1300  -33270.365      176.0944      -33094.27       199.97424      200.00584      207.45379    
      1400  -33262.694      177.86464     -33084.829      199.97462      200.00709      207.55684    
      1500  -33261.601      182.25735     -33079.344      199.96965      200.00263      207.6599     
      1600  -33259.241      177.33614     -33081.905      199.96903      200.00386      207.76296    
      1700  -33265.234      176.74483     -33088.489      199.96186      199.99921      207.86601    
      1800  -33261.239      169.18589     -33092.053      199.96113      200.00221      207.96907    
      1900  -33265.213      175.92627     -33089.286      199.95115      199.99664      208.07213    
      2000  -33254.121      172.27613     -33081.844      199.95184      200.00115      208.17519    
      2100  -33257.525      181.49474     -33076.03       199.94179      199.99238      208.27824    
      2200  -33257.006      181.18005     -33075.826      199.94398      199.99438      208.3813     
      2300  -33257.452      177.12905     -33080.323      199.93543      199.98599      208.48436    
      2400  -33261.158      177.26703     -33083.891      199.93406      199.98657      208.58741    
      2500  -33262.326      179.53796     -33082.788      199.92452      199.98197      208.69047    
      2600  -33258.066      180.68283     -33077.383      199.91972      199.98241      208.79353    
      2700  -33253.413      181.09069     -33072.323      199.91152      199.97869      208.89658    
      2800  -33255.554      184.89934     -33070.655      199.90666      199.97609      208.99964    
      2900  -33254.518      181.6442      -33072.874      199.90101      199.97112      209.1027     
      3000  -33253.96       178.70295     -33075.257      199.8955       199.9662       209.20576    
      3100  -33253.663      179.21831     -33074.445      199.8896       199.96134      209.30881    
      3200  -33247.855      177.35887     -33070.496      199.88316      199.95737      209.41187    
      3300  -33245.856      180.44713     -33065.408      199.87552      199.95228      209.51493    
      3400  -33241.794      178.62754     -33063.166      199.86894      199.94853      209.61798    
      3500  -33243.23       179.17384     -33064.056      199.86053      199.94381      209.72104    
      3600  -33244.038      177.88018     -33066.158      199.85212      199.93872      209.8241     
      3700  -33240.512      174.96485     -33065.547      199.84592      199.93407      209.92715    
      3800  -33239.299      177.86385     -33061.436      199.837        199.926        210.03021    
      3900  -33234.025      178.04676     -33055.979      199.83077      199.92301      210.13327    
      4000  -33233.556      181.31257     -33052.244      199.81934      199.91536      210.23633    
      4100  -33230.253      178.59445     -33051.659      199.81263      199.91235      210.33938    
      4200  -33230.647      178.00433     -33052.643      199.8028       199.90215      210.44244    
      4300  -33229.683      176.69849     -33052.985      199.79699      199.89652      210.5455     
      4400  -33228.277      177.27362     -33051.003      199.78526      199.88781      210.64855    
      4500  -33223.86       177.02882     -33046.831      199.77636      199.88466      210.75161    
      4600  -33223.967      181.91197     -33042.055      199.76205      199.87754      210.85467    
      4700  -33220.944      180.813       -33040.131      199.75387      199.87263      210.95773    
      4800  -33219.164      178.11953     -33041.045      199.74219      199.86189      211.06078    
      4900  -33221.192      179.61624     -33041.575      199.73521      199.85463      211.16384    
      5000  -33215.795      176.80603     -33038.988      199.72384      199.84304      211.2669     
      5100  -33211.245      177.14781     -33034.097      199.71447      199.83571      211.36995    
      5200  -33210.684      181.80579     -33028.878      199.7012       199.82705      211.47301    
      5300  -33208.04       181.56829     -33026.471      199.68838      199.81999      211.57607    
      5400  -33206.589      179.31018     -33027.279      199.67479      199.81178      211.67912    
      5500  -33207.525      178.87402     -33028.651      199.66189      199.80271      211.78218    
      5600  -33203.526      176.18449     -33027.342      199.65054      199.79156      211.88524    
      5700  -33200.491      178.05377     -33022.437      199.63985      199.77945      211.9883     
      5800  -33194.39       178.43409     -33015.956      199.62749      199.76765      212.09135    
      5900  -33191.764      179.92067     -33011.843      199.61413      199.75673      212.19441    
      6000  -33189.197      177.68795     -33011.509      199.59847      199.74785      212.29747    
      6100  -33191.631      178.58158     -33013.05       199.58124      199.73835      212.40052    
      6200  -33189.667      177.06808     -33012.599      199.56565      199.72867      212.50358    
      6300  -33185.808      177.58971     -33008.219      199.55027      199.71605      212.60664    
      6400  -33182.112      180.01391     -33002.098      199.538        199.70167      212.70969    
      6500  -33178.897      181.34746     -32997.55       199.52512      199.68627      212.81275    
      6600  -33176.741      180.44695     -32996.294      199.50996      199.67175      212.91581    
      6700  -33174.088      177.02933     -32997.058      199.49238      199.66094      213.01887    
      6800  -33172.382      175.98892     -32996.393      199.47047      199.65118      213.12192    
      6900  -33170.604      177.98247     -32992.621      199.45069      199.64087      213.22498    
      7000  -33167.319      182.03413     -32985.285      199.43258      199.62704      213.32804    
      7100  -33160.988      180.23381     -32980.754      199.41761      199.60971      213.43109    
      7200  -33158.148      178.15577     -32979.992      199.40335      199.58987      213.53415    
      7300  -33156.302      176.58568     -32979.716      199.38735      199.573        213.63721    
      7400  -33155.84       178.88714     -32976.953      199.36596      199.55814      213.74026    
      7500  -33151.738      179.04436     -32972.694      199.34177      199.54747      213.84332    
      7600  -33149.182      181.43476     -32967.748      199.3166       199.53567      213.94638    
      7700  -33143.386      180.17321     -32963.213      199.29488      199.52005      214.04944    
      7800  -33135.016      174.72161     -32960.294      199.2769       199.49983      214.15249    
      7900  -33139.458      178.95111     -32960.507      199.26026      199.47716      214.25555    
      8000  -33138.649      178.29706     -32960.352      199.2404       199.4557       214.35861    
      8100  -33135.453      178.47638     -32956.977      199.21796      199.43839      214.46166    
      8200  -33127.401      178.9233      -32948.477      199.19093      199.42119      214.56472    
      8300  -33122.099      178.96038     -32943.138      199.16436      199.40665      214.66778    
      8400  -33124.496      182.27384     -32942.222      199.13719      199.38712      214.77083    
      8500  -33119.757      177.93502     -32941.822      199.1147       199.36642      214.87389    
      8600  -33117.088      177.66082     -32939.427      199.09106      199.34106      214.97695    
      8700  -33111.983      176.84164     -32935.141      199.06895      199.31837      215.08001    
      8800  -33106.992      177.38745     -32929.605      199.04162      199.29464      215.18306    
      8900  -33102.491      183.11599     -32919.375      199.01409      199.27482      215.28612    
      9000  -33101.688      185.61441     -32916.074      198.98278      199.25296      215.38918    
      9100  -33095.721      178.41842     -32917.303      198.95406      199.23169      215.49223    
      9200  -33096.834      180.22479     -32916.61       198.92418      199.20596      215.59529    
      9300  -33093.132      178.21126     -32914.921      198.89721      199.18064      215.69835    
      9400  -33090.368      178.61278     -32911.756      198.86774      199.15236      215.80141    
      9500  -33082.837      178.35666     -32904.48       198.83911      199.12658      215.90446    
      9600  -33077.352      180.54754     -32896.804      198.8059       199.09901      216.00752    
      9700  -33074.16       179.24337     -32894.917      198.77364      199.07453      216.11058    
      9800  -33070.813      176.03117     -32894.782      198.73791      199.04661      216.21363    
      9900  -33071.355      179.61554     -32891.739      198.70495      199.0207       216.31669    
     10000  -33065.475      178.04361     -32887.431      198.66907      198.98975      216.41975    
     10100  -33062.238      179.60961     -32882.629      198.63729      198.96034      216.5228     
     10200  -33055.41       179.76963     -32875.64       198.60092      198.9271       216.62586    
     10300  -33050.647      181.09647     -32869.55       198.56598      198.89784      216.72892    
     10400  -33049.336      179.52791     -32869.809      198.52669      198.86498      216.83198    
     10500  -33046.602      177.19367     -32869.408      198.48956      198.83415      216.93503    
     10600  -33042.965      177.71704     -32865.248      198.44866      198.80089      217.03809    
     10700  -33036.796      177.5705      -32859.225      198.40975      198.76837      217.14115    
     10800  -33034.891      183.43585     -32851.455      198.36822      198.73293      217.2442     
     10900  -33026.981      182.78642     -32844.195      198.32799      198.69945      217.34726    
     11000  -33024.12       179.98326     -32844.137      198.28419      198.66234      217.45032    
     11100  -33024.01       179.7294      -32844.281      198.24294      198.6266       217.55337    
     11200  -33019.329      178.25095     -32841.078      198.19828      198.58763      217.65643    
     11300  -33014.728      179.06963     -32835.658      198.15595      198.54988      217.75949    
     11400  -33006.598      179.15072     -32827.447      198.10998      198.50938      217.86255    
     11500  -33003.76       183.16165     -32820.598      198.06475      198.47115      217.9656     
     11600  -33000.03       179.72766     -32820.303      198.01636      198.43093      218.06866    
     11700  -32999.229      178.95355     -32820.276      197.96778      198.39201      218.17172    
     11800  -32992.792      177.91464     -32814.878      197.91739      198.3507       218.27477    
     11900  -32986.503      179.20452     -32807.299      197.86993      198.30896      218.37783    
     12000  -32978.29       177.99751     -32800.292      197.821        198.26278      218.48089    
     12100  -32975.073      178.18692     -32796.886      197.77238      198.21886      218.58394    
     12200  -32973.902      175.03738     -32798.865      197.71994      198.17365      218.687      
     12300  -32970.083      175.89416     -32794.189      197.66663      198.13167      218.79006    
     12400  -32964.253      178.00199     -32786.251      197.61051      198.08751      218.89312    
     12500  -32957.559      178.55256     -32779.006      197.55622      198.04369      218.99617    
     12600  -32953.697      179.37132     -32774.325      197.50202      197.99533      219.09923    
     12700  -32952.811      180.5753      -32772.236      197.44986      197.94586      219.20229    
     12800  -32949.764      175.68625     -32774.078      197.3961       197.89496      219.30534    
     12900  -32941.531      173.74876     -32767.782      197.34097      197.84627      219.4084     
     13000  -32936.514      177.75285     -32758.762      197.28151      197.79834      219.51146    
     13100  -32933.405      181.92004     -32751.485      197.22049      197.75278      219.61451    
     13200  -32923.553      177.10769     -32746.446      197.15931      197.70516      219.71757    
     13300  -32920.929      177.14032     -32743.789      197.10117      197.65405      219.82063    
     13400  -32920.16       176.08288     -32744.077      197.0451       197.59888      219.92369    
     13500  -32913.249      174.1403      -32739.108      196.99011      197.54331      220.02674    
     13600  -32909.087      179.1221      -32729.965      196.93124      197.48918      220.1298     
     13700  -32901.826      178.46145     -32723.364      196.86881      197.43846      220.23286    
     13800  -32898.228      180.1309      -32718.097      196.80365      197.38999      220.33591    
     13900  -32893.93       180.11322     -32713.817      196.73866      197.34015      220.43897    
     14000  -32887.944      177.80785     -32710.137      196.67699      197.28681      220.54203    
     14100  -32883.985      177.23385     -32706.751      196.61801      197.22979      220.64509    
     14200  -32878.202      176.67057     -32701.532      196.56057      197.1714       220.74814    
     14300  -32869.148      177.03565     -32692.112      196.5006       197.11441      220.8512     
     14400  -32860.707      176.45207     -32684.255      196.43705      197.06153      220.95426    
     14500  -32859.308      179.03236     -32680.275      196.37051      197.01111      221.05731    
     14600  -32854.471      175.43486     -32679.036      196.30442      196.95951      221.16037    
     14700  -32850.949      174.78823     -32676.161      196.24114      196.90551      221.26343    
     14800  -32847.011      177.20986     -32669.801      196.18044      196.84861      221.36648    
     14900  -32840.922      178.2584      -32662.664      196.1206       196.791        221.46954    
     15000  -32834.562      180.15903     -32654.403      196.05939      196.73521      221.5726     
     15100  -32828.421      180.98954     -32647.431      195.99567      196.68163      221.67566    
     15200  -32822.771      179.95927     -32642.811      195.93151      196.62898      221.77871    
     15300  -32820.205      177.69801     -32642.507      195.86726      196.57605      221.88177    
     15400  -32814.048      175.33855     -32638.709      195.80471      196.52253      221.98483    
     15500  -32807.291      176.46192     -32630.829      195.74356      196.46742      222.08788    
     15600  -32800.531      178.04571     -32622.485      195.68361      196.41212      222.19094    
     15700  -32796.542      180.10276     -32616.44       195.62338      196.35784      222.294      
     15800  -32792.062      180.50507     -32611.557      195.56136      196.30462      222.39705    
     15900  -32783.515      176.00407     -32607.511      195.49952      196.25355      222.50011    
     16000  -32782.457      178.15881     -32604.298      195.43793      196.20192      222.60317    
     16100  -32778.209      175.81582     -32602.394      195.37879      196.14893      222.70623    
     16200  -32772.011      176.30784     -32595.703      195.32104      196.09507      222.80928    
     16300  -32762.076      177.69675     -32584.38       195.26394      196.04261      222.91234    
     16400  -32755.483      178.59091     -32576.892      195.20492      195.99172      223.0154     
     16500  -32753.99       182.78718     -32571.202      195.14598      195.94332      223.11845    
     16600  -32743.56       175.83568     -32567.724      195.08668      195.89389      223.22151    
     16700  -32743.89       177.695       -32566.195      195.03001      195.84544      223.32457    
     16800  -32737.308      176.94983     -32560.358      194.9742       195.79506      223.42762    
     16900  -32728.174      180.09712     -32548.077      194.92064      195.74573      223.53068    
     17000  -32721.785      180.56579     -32541.22       194.86586      195.69618      223.63374    
     17100  -32713.06       176.26212     -32536.798      194.81171      195.6503       223.7368     
     17200  -32709.739      177.43876     -32532.3        194.75544      195.60423      223.83985    
     17300  -32704.141      176.19214     -32527.949      194.702        195.55955      223.94291    
     17400  -32696.464      175.06383     -32521.4        194.6496       195.51278      224.04597    
     17500  -32690.718      179.62608     -32511.092      194.59961      195.46656      224.14902    
     17600  -32682.801      179.80612     -32502.995      194.54945      195.42033      224.25208    
     17700  -32676.881      178.14952     -32498.732      194.50001      195.37577      224.35514    
     17800  -32675.398      176.94576     -32498.452      194.44902      195.33174      224.4582     
     17900  -32670.056      177.52063     -32492.535      194.3995       195.2905       224.56125    
     18000  -32660.141      176.33546     -32483.806      194.34945      195.24784      224.66431    
     18100  -32653.62       178.54592     -32475.074      194.3014       195.20727      224.76737    
     18200  -32646.833      178.79128     -32468.042      194.25358      195.16537      224.87042    
     18300  -32642.275      179.20254     -32463.073      194.20865      195.12381      224.97348    
     18400  -32637.218      175.61587     -32461.602      194.16371      195.08128      225.07654    
     18500  -32629.632      174.09483     -32455.538      194.12001      195.0409       225.17959    
     18600  -32623.023      178.17308     -32444.85       194.07481      195.00086      225.28265    
     18700  -32616.658      180.22762     -32436.431      194.0301       194.96454      225.38571    
     18800  -32611.046      180.81167     -32430.235      193.9836       194.92761      225.48877    
     18900  -32602.112      176.20846     -32425.904      193.94148      194.89107      225.59182    
     19000  -32599.396      173.84316     -32425.553      193.90049      194.85107      225.69488    
     19100  -32592.921      174.88241     -32418.039      193.86231      194.81267      225.79794    
     19200  -32586.651      178.58018     -32408.071      193.82163      194.77441      225.90099    
     19300  -32577.317      178.22431     -32399.093      193.78001      194.74192      226.00405    
     19400  -32570.528      178.96377     -32391.564      193.73562      194.70909      226.10711    
     19500  -32562.431      177.39843     -32385.032      193.69644      194.6768       226.21016    
     19600  -32559.15       178.92973     -32380.221      193.65831      194.6388       226.31322    
     19700  -32554.842      178.22259     -32376.62       193.62498      194.60256      226.41628    
     19800  -32544.95       174.99144     -32369.959      193.58801      194.56557      226.51934    
     19900  -32534.847      176.37879     -32358.468      193.55146      194.53484      226.62239    
     20000  -32530          180.42029     -32349.58       193.50914      194.50421      226.72545    
     20100  -32522.873      178.79887     -32344.074      193.47118      194.47654      226.82851    
     20200  -32518.13       178.32375     -32339.806      193.43396      194.44255      226.93156    
     20300  -32512.01       174.68616     -32337.324      193.40371      194.40889      227.03462    
     20400  -32506.053      171.30349     -32334.749      193.37079      194.37107      227.13768    
     20500  -32498.764      174.5595      -32324.204      193.33986      194.341        227.24073    
     20600  -32489.745      175.57823     -32314.166      193.30073      194.3103       227.34379    
     20700  -32483.197      178.5999      -32304.597      193.26526      194.28661      227.44685    
     20800  -32473.997      178.56563     -32295.432      193.22718      194.25586      227.54991    
     20900  -32468.084      179.37661     -32288.708      193.19816      194.22727      227.65296    
     21000  -32463.529      178.00085     -32285.528      193.16604      194.19173      227.75602    
     21100  -32457.042      174.873       -32282.169      193.1394       194.16161      227.85908    
     21200  -32452.041      178.71505     -32273.325      193.10566      194.12974      227.96213    
     21300  -32441.36       177.29023     -32264.07       193.07402      194.10527      228.06519    
     21400  -32433.768      177.83405     -32255.934      193.03777      194.07782      228.16825    
     21500  -32425.197      176.73123     -32248.466      193.00652      194.05359      228.2713     
     21600  -32421.653      179.72219     -32241.93       192.97405      194.02299      228.37436    
     21700  -32413.607      175.25467     -32238.353      192.94811      193.99456      228.47742    
     21800  -32409.669      176.11792     -32233.551      192.9182       193.96245      228.58048    
     21900  -32399.186      175.91056     -32223.275      192.8908       193.93617      228.68353    
     22000  -32392.864      180.76468     -32212.099      192.85797      193.9078       228.78659    
     22100  -32384.694      179.82552     -32204.868      192.82861      193.88405      228.88965    
     22200  -32376.245      176.61999     -32199.625      192.79643      193.85597      228.9927     
     22300  -32372.112      176.009       -32196.103      192.76917      193.83054      229.09576    
     22400  -32367.18       175.24329     -32191.937      192.73927      193.80108      229.19882    
     22500  -32357.324      174.02664     -32183.298      192.71326      193.77479      229.30188    
     22600  -32349.765      179.5784      -32170.187      192.68346      193.7466       229.40493    
     22700  -32340.382      179.31464     -32161.068      192.6556       193.72237      229.50799    
     22800  -32333.595      179.38596     -32154.209      192.62502      193.69504      229.61105    
     22900  -32326.851      176.41739     -32150.433      192.59928      193.66973      229.7141     
     23000  -32319.738      173.46517     -32146.273      192.57078      193.64093      229.81716    
     23100  -32313.71       176.43161     -32137.278      192.54462      193.61644      229.92022    
     23200  -32304.585      180.97691     -32123.609      192.51387      193.59042      230.02327    
     23300  -32296.441      180.02707     -32116.414      192.4869       193.56758      230.12633    
     23400  -32290.66       178.59778     -32112.062      192.4577       193.53949      230.22939    
     23500  -32284.05       176.33476     -32107.715      192.43292      193.51471      230.33245    
     23600  -32274.179      174.74066     -32099.439      192.40491      193.48682      230.4355     
     23700  -32266.616      180.5919      -32086.024      192.3792       193.46288      230.53856    
     23800  -32259.031      181.87006     -32077.161      192.35047      193.43582      230.64162    
     23900  -32251.468      179.24091     -32072.227      192.32473      193.41171      230.74467    
     24000  -32246.11       178.09841     -32068.012      192.29463      193.38596      230.84773    
     24100  -32239.067      177.00201     -32062.065      192.26702      193.36427      230.95079    
     24200  -32233.526      180.53536     -32052.99       192.2373       193.33811      231.05384    
     24300  -32219.807      180.25581     -32039.551      192.21244      193.31381      231.1569     
     24400  -32209.337      179.94414     -32029.393      192.18588      193.28493      231.25996    
     24500  -32203.782      178.49025     -32025.292      192.16266      193.25787      231.36302    
     24600  -32200.781      179.17514     -32021.606      192.13545      193.23041      231.46607    
     24700  -32193.66       177.98254     -32015.678      192.10767      193.20777      231.56913    
     24800  -32184.268      176.96924     -32007.298      192.0762       193.18505      231.67219    
     24900  -32173.658      178.9903      -31994.668      192.04637      193.16381      231.77524    
     25000  -32165.784      181.02229     -31984.762      192.01881      193.13818      231.8783     
     25100  -32162.545      183.09951     -31979.446      191.99545      193.10964      231.98136    
     25200  -32152.339      178.40027     -31973.939      191.97249      193.07975      232.08441    
     25300  -32144.173      177.07802     -31967.095      191.94757      193.05251      232.18747    
     25400  -32136.186      176.6714      -31959.515      191.91906      193.02845      232.29053    
     25500  -32130.325      179.27238     -31951.053      191.88909      193.00592      232.39359    
     25600  -32118.274      178.22894     -31940.045      191.85994      192.98322      232.49664    
     25700  -32109.078      178.47277     -31930.605      191.8316       192.95808      232.5997     
     25800  -32102.815      176.64305     -31926.172      191.80629      192.9317       232.70276    
     25900  -32100.662      178.50766     -31922.154      191.78097      192.90329      232.80581    
     26000  -32089.096      175.29175     -31913.805      191.75605      192.87665      232.90887    
     26100  -32081.177      177.37302     -31903.804      191.72819      192.8502       233.01193    
     26200  -32071.566      176.76138     -31894.805      191.70093      192.82571      233.11498    
     26300  -32065.015      178.42198     -31886.593      191.67209      192.80005      233.21804    
     26400  -32056.025      177.25969     -31878.766      191.64548      192.77496      233.3211     
     26500  -32052.055      180.67219     -31871.383      191.61739      192.74807      233.42416    
     26600  -32040.537      175.05989     -31865.477      191.5906       192.72267      233.52721    
     26700  -32035.984      177.4908      -31858.493      191.56279      192.69535      233.63027    
     26800  -32027.478      179.83514     -31847.643      191.53649      192.66997      233.73333    
     26900  -32013.247      177.45717     -31835.79       191.50783      192.6433       233.83638    
     27000  -32007.49       180.05553     -31827.434      191.48083      192.61791      233.93944    
     27100  -32002.986      180.53686     -31822.449      191.45272      192.5903       234.0425     
     27200  -31992.625      172.70156     -31819.923      191.42703      192.56339      234.14556    
     27300  -31988.679      177.18106     -31811.498      191.39937      192.53538      234.24861    
     27400  -31976.284      175.58967     -31800.694      191.37178      192.51034      234.35167    
     27500  -31968.74       179.34189     -31789.398      191.34193      192.48431      234.45473    
     27600  -31958.6        179.04009     -31779.56       191.31372      192.45924      234.55778    
     27700  -31951.226      179.56851     -31771.657      191.28531      192.43204      234.66084    
     27800  -31944.75       177.54808     -31767.202      191.25803      192.40528      234.7639     
     27900  -31937.275      174.78996     -31762.486      191.23064      192.3769       234.86695    
     28000  -31929.227      177.92891     -31751.298      191.20433      192.3485       234.97001    
     28100  -31916.113      176.95557     -31739.157      191.17705      192.32028      235.07307    
     28200  -31909.112      178.90655     -31730.206      191.14768      192.29379      235.17613    
     28300  -31898.139      175.72807     -31722.411      191.11761      192.26883      235.27918    
     28400  -31893.418      177.3841      -31716.034      191.08714      192.24275      235.38224    
     28500  -31888.018      176.81012     -31711.208      191.05846      192.21649      235.4853     
     28600  -31879.548      177.69645     -31701.852      191.03052      192.18681      235.58835    
     28700  -31868.489      180.35366     -31688.136      191.00471      192.15806      235.69141    
     28800  -31859.365      181.04513     -31678.32       190.97623      192.1277       235.79447    
     28900  -31850.397      179.24036     -31671.157      190.94834      192.10129      235.89752    
     29000  -31841.513      175.73828     -31665.774      190.9164       192.07438      236.00058    
     29100  -31836.728      175.22128     -31661.507      190.88625      192.04926      236.10364    
     29200  -31829.227      175.85041     -31653.376      190.85686      192.02042      236.2067     
     29300  -31818.014      179.87167     -31638.143      190.82959      191.99179      236.30975    
     29400  -31811.251      183.86378     -31627.387      190.80051      191.96232      236.41281    
     29500  -31798.466      179.70285     -31618.763      190.77127      191.935        236.51587    
     29600  -31794.265      181.31096     -31612.955      190.74029      191.90752      236.61892    
     29700  -31784.484      176.5672      -31607.916      190.71016      191.88032      236.72198    
     29800  -31775.765      176.31754     -31599.448      190.68041      191.85178      236.82504    
     29900  -31763.747      179.49397     -31584.253      190.65135      191.82252      236.92809    
     30000  -31754.76       180.08827     -31574.672      190.62347      191.79316      237.03115    
     30100  -31748.04       179.91514     -31568.125      190.59447      191.76215      237.13421    
     30200  -31742.007      178.94504     -31563.062      190.56443      191.73441      237.23727    
     30300  -31731.756      176.09594     -31555.66       190.53141      191.70726      237.34032    
     30400  -31720.976      178.90779     -31542.068      190.49981      191.68141      237.44338    
     30500  -31708.888      179.16688     -31529.721      190.46795      191.65239      237.54644    
     30600  -31703.814      180.54566     -31523.268      190.44038      191.62221      237.64949    
     30700  -31696.924      178.32372     -31518.6        190.41207      191.58884      237.75255    
     30800  -31686.083      175.00473     -31511.078      190.38468      191.55869      237.85561    
     30900  -31676.736      176.3253      -31500.41       190.35247      191.529        237.95866    
     31000  -31665.431      179.33109     -31486.1        190.32045      191.50336      238.06172    
     31100  -31657.514      181.13389     -31476.38       190.28607      191.475        238.16478    
     31200  -31648.907      178.76479     -31470.142      190.25639      191.44697      238.26784    
     31300  -31644.057      179.50936     -31464.547      190.2259       191.41476      238.37089    
     31400  -31636.798      179.14455     -31457.654      190.19749      191.3848       238.47395    
     31500  -31626.294      178.23453     -31448.059      190.16583      191.35366      238.57701    
     31600  -31619.271      186.01461     -31433.256      190.13586      191.32494      238.68006    
     31700  -31603.662      179.91711     -31423.744      190.10434      191.29356      238.78312    
     31800  -31598.274      180.54888     -31417.725      190.07428      191.2638       238.88618    
     31900  -31590.512      178.5543      -31411.958      190.04186      191.23347      238.98924    
     32000  -31579.563      176.23872     -31403.324      190.00958      191.20544      239.09229    
     32100  -31571.376      177.75029     -31393.626      189.97625      191.176        239.19535    
     32200  -31561.025      177.60392     -31383.421      189.94561      191.14551      239.29841    
     32300  -31549.88       178.38671     -31371.493      189.91636      191.11268      239.40146    
     32400  -31541.52       184.65671     -31356.863      189.8867       191.08007      239.50452    
     32500  -31528.529      178.20415     -31350.324      189.85497      191.05017      239.60758    
     32600  -31525.703      180.60238     -31345.101      189.82091      191.02049      239.71063    
     32700  -31516.387      177.97706     -31338.41       189.78903      190.99086      239.81369    
     32800  -31505.448      174.26553     -31331.182      189.75767      190.95912      239.91675    
     32900  -31503.513      180.51072     -31323.003      189.72733      190.92742      240.01981    
     33000  -31487.65       175.63039     -31312.019      189.69482      190.89634      240.12286    
     33100  -31480.028      181.20738     -31298.821      189.66185      190.86751      240.22592    
     33200  -31468.791      179.3131      -31289.477      189.62825      190.83703      240.32898    
     33300  -31462.323      177.47373     -31284.849      189.59657      190.8064       240.43203    
     33400  -31457.629      179.13466     -31278.495      189.56531      190.77391      240.53509    
     33500  -31446.319      178.0607      -31268.258      189.53504      190.7412       240.63815    
     33600  -31434.705      177.41204     -31257.293      189.50456      190.70864      240.7412     
     33700  -31425.974      179.66407     -31246.31       189.47255      190.67645      240.84426    
     33800  -31414.503      177.65366     -31236.849      189.43988      190.6467       240.94732    
     33900  -31406.549      177.15719     -31229.392      189.40462      190.61684      241.05038    
     34000  -31401.299      178.16584     -31223.133      189.37081      190.58822      241.15343    
     34100  -31391.828      177.74434     -31214.084      189.33683      190.55652      241.25649    
     34200  -31378.654      177.58556     -31201.069      189.30641      190.52476      241.35955    
     34300  -31368.892      179.64812     -31189.244      189.27501      190.49026      241.4626     
     34400  -31359.279      178.38687     -31180.892      189.2452       190.45756      241.56566    
     34500  -31355.177      179.78137     -31175.395      189.21209      190.4249       241.66872    
     34600  -31345.308      172.78201     -31172.526      189.17883      190.39481      241.77177    
     34700  -31339.271      177.11764     -31162.153      189.14417      190.3643       241.87483    
     34800  -31326.315      177.48854     -31148.826      189.1109       190.33392      241.97789    
     34900  -31315.551      179.06493     -31136.486      189.07737      190.30304      242.08095    
     35000  -31304.587      179.03388     -31125.553      189.04472      190.27139      242.184      
     35100  -31295.667      179.6652      -31116.002      189.013        190.23902      242.28706    
     35200  -31289.225      179.39239     -31109.833      188.98167      190.20582      242.39012    
     35300  -31280.477      176.21472     -31104.262      188.95103      190.17232      242.49317    
     35400  -31269.794      176.22301     -31093.571      188.91888      190.13939      242.59623    
     35500  -31255.899      176.54122     -31079.358      188.88551      190.10983      242.69929    
     35600  -31248.72       179.67784     -31069.043      188.84915      190.07991      242.80235    
     35700  -31237.297      176.60719     -31060.69       188.81584      190.05096      242.9054     
     35800  -31231.097      178.14654     -31052.95       188.78328      190.01636      243.00846    
     35900  -31220.66       173.78735     -31046.873      188.75378      189.98385      243.11152    
     36000  -31212.307      172.17678     -31040.13       188.72063      189.94951      243.21457    
     36100  -31203.166      176.26304     -31026.903      188.68887      189.91961      243.31763    
     36200  -31194.361      180.85954     -31013.501      188.65361      189.88756      243.42069    
     36300  -31184.932      181.32502     -31003.607      188.62195      189.85717      243.52374    
     36400  -31172.189      176.99286     -30995.196      188.58928      189.82291      243.6268     
     36500  -31166.265      177.20965     -30989.055      188.55856      189.79077      243.72986    
     36600  -31158.079      175.42869     -30982.65       188.52516      189.75785      243.83292    
     36700  -31148.626      178.42144     -30970.204      188.49163      189.72813      243.93597    
     36800  -31136.669      180.89687     -30955.772      188.45664      189.6982       244.03903    
     36900  -31124.814      178.78501     -30946.029      188.42397      189.66681      244.14209    
     37000  -31117.331      179.64745     -30937.683      188.39342      189.6328       244.24514    
     37100  -31106.171      174.35076     -30931.82       188.36301      189.59908      244.3482     
     37200  -31101.503      176.42592     -30925.077      188.33095      189.56703      244.45126    
     37300  -31091.601      179.3581      -30912.243      188.29688      189.53628      244.55431    
     37400  -31075.793      178.26324     -30897.53       188.26443      189.5064       244.65737    
     37500  -31068.6        180.72361     -30887.877      188.23117      189.47361      244.76043    
     37600  -31059.243      178.27791     -30880.965      188.19988      189.44307      244.86349    
     37700  -31052.231      177.78229     -30874.448      188.1655       189.41084      244.96654    
     37800  -31042.214      176.75587     -30865.458      188.13415      189.38099      245.0696     
     37900  -31030.35       180.03609     -30850.314      188.10119      189.34771      245.17266    
     38000  -31019.173      180.79207     -30838.381      188.07214      189.31559      245.27571    
     38100  -31010.463      179.68147     -30830.782      188.04103      189.28102      245.37877    
     38200  -31001.096      175.98418     -30825.112      188.00949      189.24965      245.48183    
     38300  -30992.53       176.12075     -30816.409      187.97546      189.21982      245.58488    
     38400  -30980.066      177.10219     -30802.964      187.94053      189.19092      245.68794    
     38500  -30968.896      180.74727     -30788.149      187.90823      189.16148      245.791      
     38600  -30958.928      178.10032     -30780.828      187.87675      189.1275       245.89406    
     38700  -30954.187      178.90137     -30775.286      187.84944      189.09413      245.99711    
     38800  -30942.175      174.92309     -30767.252      187.81799      189.05984      246.10017    
     38900  -30933.889      177.14277     -30756.746      187.78688      189.03086      246.20323    
     39000  -30921.332      179.73158     -30741.6        187.75249      188.99986      246.30628    
     39100  -30909.816      179.4068      -30730.409      187.72173      188.97056      246.40934    
     39200  -30904.406      180.53124     -30723.875      187.68928      188.93878      246.5124     
     39300  -30898.687      181.92798     -30716.759      187.65832      188.90864      246.61545    
     39400  -30886.316      178.39808     -30707.918      187.62632      188.87775      246.71851    
     39500  -30874.428      176.84835     -30697.58       187.59586      188.847        246.82157    
     39600  -30862.65       179.7409      -30682.909      187.56526      188.81499      246.92463    
     39700  -30852.83       182.01534     -30670.814      187.53535      188.78345      247.02768    
     39800  -30843.708      179.19156     -30664.517      187.50456      188.75222      247.13074    
     39900  -30836.333      178.72427     -30657.609      187.47334      188.72175      247.2338     
     40000  -30825.967      177.27563     -30648.692      187.44229      188.69149      247.33685    
     40100  -30817.384      178.53479     -30638.849      187.41075      188.66107      247.43991    
     40200  -30808.351      180.54764     -30627.803      187.37967      188.63151      247.54297    
     40300  -30795.933      180.95034     -30614.982      187.34865      188.60101      247.64603    
     40400  -30784.185      179.64617     -30604.539      187.31854      188.57071      247.74908    
     40500  -30776.771      177.2243      -30599.547      187.2883       188.54038      247.85214    
     40600  -30767.692      175.37503     -30592.317      187.25833      188.5095       247.9552     
     40700  -30759.263      177.73349     -30581.53       187.22881      188.47897      248.05825    
     40800  -30748.159      178.87726     -30569.282      187.19927      188.44805      248.16131    
     40900  -30738.426      182.53183     -30555.894      187.16992      188.41844      248.26437    
     41000  -30721.472      181.09599     -30540.376      187.13837      188.38941      248.36742    
     41100  -30716.225      183.09368     -30533.132      187.1074       188.36188      248.47048    
     41200  -30706.328      178.43714     -30527.891      187.07653      188.33238      248.57354    
     41300  -30698.645      178.18356     -30520.462      187.04765      188.30333      248.6766     
     41400  -30692.69       179.96866     -30512.722      187.01823      188.27246      248.77965    
     41500  -30679.485      176.08261     -30503.403      186.99023      188.24255      248.88271    
     41600  -30669.123      178.85214     -30490.271      186.96161      188.21155      248.98577    
     41700  -30658.116      181.35343     -30476.763      186.93315      188.18218      249.08882    
     41800  -30642.232      174.94718     -30467.284      186.90367      188.15356      249.19188    
     41900  -30640.371      178.36645     -30462.004      186.87279      188.12525      249.29494    
     42000  -30631.951      176.3504      -30455.6        186.84236      188.09817      249.39799    
     42100  -30619.294      175.05661     -30444.238      186.81204      188.06972      249.50105    
     42200  -30608.844      178.01472     -30430.829      186.78385      188.04147      249.60411    
     42300  -30596.928      178.13044     -30418.797      186.75547      188.01098      249.70717    
     42400  -30587.398      177.91459     -30409.483      186.72935      187.98188      249.81022    
     42500  -30581.839      177.07878     -30404.76       186.70085      187.95087      249.91328    
     42600  -30573.797      176.79342     -30397.003      186.6739       187.9236       250.01634    
     42700  -30559.601      175.65456     -30383.947      186.64292      187.89617      250.11939    
     42800  -30548.497      177.10344     -30371.394      186.61281      187.87121      250.22245    
     42900  -30541.579      180.81161     -30360.768      186.5829       187.84446      250.32551    
     43000  -30527.186      175.97992     -30351.206      186.55559      187.81588      250.42856    
     43100  -30520.912      177.76187     -30343.15       186.52978      187.78617      250.53162    
     43200  -30511.838      175.09382     -30336.744      186.50288      187.75684      250.63468    
     43300  -30501.95       176.12395     -30325.826      186.47587      187.72955      250.73774    
     43400  -30488.154      177.35482     -30310.799      186.44649      187.70195      250.84079    
     43500  -30480.285      180.79103     -30299.494      186.41907      187.67653      250.94385    
     43600  -30471.072      180.84014     -30290.232      186.38991      187.64819      251.04691    
     43700  -30463.369      179.78067     -30283.588      186.36392      187.62204      251.14996    
     43800  -30453.469      175.46263     -30278.007      186.33594      187.59285      251.25302    
     43900  -30442.614      176.10416     -30266.51       186.31017      187.56675      251.35608    
     44000  -30435.24       181.06877     -30254.171      186.2813       187.53836      251.45913    
     44100  -30420.099      177.67539     -30242.423      186.25605      187.51272      251.56219    
     44200  -30409.126      178.97016     -30230.156      186.22847      187.48396      251.66525    
     44300  -30399.384      180.47084     -30218.913      186.20331      187.4572       251.76831    
     44400  -30391.504      180.10995     -30211.394      186.17611      187.43028      251.87136    
     44500  -30382.374      176.60295     -30205.771      186.14924      187.40386      251.97442    
     44600  -30369.56       174.33733     -30195.222      186.12336      187.37801      252.07748    
     44700  -30358.945      178.0208      -30180.924      186.09556      187.35093      252.18053    
     44800  -30349.138      179.88317     -30169.254      186.06967      187.32727      252.28359    
     44900  -30339.356      179.51093     -30159.845      186.04078      187.30064      252.38665    
     45000  -30331.106      179.50323     -30151.603      186.01681      187.27621      252.48971    
     45100  -30321.069      178.04293     -30143.026      185.99085      187.24641      252.59276    
     45200  -30311.482      176.49132     -30134.991      185.96827      187.22048      252.69582    
     45300  -30300.616      175.87856     -30124.737      185.94128      187.19261      252.79888    
     45400  -30289.358      179.27412     -30110.084      185.91586      187.16938      252.90193    
     45500  -30277.264      179.78685     -30097.477      185.8874       187.14437      253.00499    
     45600  -30265.862      177.58172     -30088.281      185.86101      187.12055      253.10805    
     45700  -30258.297      175.95252     -30082.345      185.83571      187.09441      253.2111     
     45800  -30252.087      177.04088     -30075.046      185.81116      187.06708      253.31416    
     45900  -30241.272      178.63067     -30062.641      185.78759      187.04137      253.41722    
     46000  -30226.201      181.01557     -30045.185      185.76193      187.01486      253.52028    
     46100  -30218.268      182.05355     -30036.214      185.73766      186.99082      253.62333    
     46200  -30209.689      179.46342     -30030.226      185.71076      186.96478      253.72639    
     46300  -30200.317      177.58456     -30022.732      185.68715      186.94159      253.82945    
     46400  -30188.162      176.22019     -30011.941      185.66001      186.91599      253.9325     
     46500  -30177.357      180.18613     -29997.171      185.63595      186.893        254.03556    
     46600  -30165.343      179.99767     -29985.346      185.61044      186.86683      254.13862    
     46700  -30155.507      178.26745     -29977.24       185.58788      186.84205      254.24167    
     46800  -30147.022      178.29147     -29968.731      185.56354      186.81591      254.34473    
     46900  -30135.846      177.0543      -29958.792      185.53931      186.79214      254.44779    
     47000  -30128.811      180.05545     -29948.756      185.51395      186.76821      254.55085    
     47100  -30116.278      177.26358     -29939.014      185.48909      186.74405      254.6539     
     47200  -30109.559      180.0846      -29929.474      185.46605      186.71908      254.75696    
     47300  -30098.159      178.32255     -29919.837      185.44262      186.69315      254.86002    
     47400  -30089.118      180.913       -29908.205      185.41889      186.66979      254.96307    
     47500  -30073.507      179.4211      -29894.086      185.39258      186.64611      255.06613    
     47600  -30063.169      179.82304     -29883.346      185.36858      186.62351      255.16919    
     47700  -30056.97       178.0475      -29878.922      185.3439       186.59809      255.27224    
     47800  -30050.156      179.5664      -29870.59       185.32198      186.57436      255.3753     
     47900  -30035.817      177.29243     -29858.524      185.29823      186.54822      255.47836    
     48000  -30022.425      177.53559     -29844.89       185.27679      186.52471      255.58142    
     48100  -30015.419      182.35019     -29833.069      185.25159      186.50031      255.68447    
     48200  -30006.504      179.70913     -29826.795      185.22779      186.47875      255.78753    
     48300  -29999.959      179.44023     -29820.519      185.20285      186.45539      255.89059    
     48400  -29987.056      178.61015     -29808.446      185.17991      186.43233      255.99364    
     48500  -29973.638      179.46571     -29794.172      185.15634      186.40808      256.0967     
     48600  -29961.894      179.26744     -29782.626      185.13376      186.38517      256.19976    
     48700  -29954.688      180.79206     -29773.896      185.11002      186.36149      256.30281    
     48800  -29944.85       174.45926     -29770.39       185.0874       186.33876      256.40587    
     48900  -29935.297      175.90384     -29759.393      185.06428      186.31469      256.50893    
     49000  -29923.952      179.02692     -29744.925      185.04196      186.2917       256.61199    
     49100  -29914.059      182.25393     -29731.805      185.0179       186.26838      256.71504    
     49200  -29900.892      179.33195     -29721.56       184.99463      186.24688      256.8181     
     49300  -29893.671      178.7096      -29714.961      184.97042      186.22457      256.92116    
     49400  -29885.828      177.50936     -29708.319      184.94838      186.20065      257.02421    
     49500  -29872.81       176.35022     -29696.459      184.92793      186.17561      257.12727    
     49600  -29859.644      175.78579     -29683.858      184.9065       186.15064      257.23033    
     49700  -29849.476      177.6696      -29671.807      184.88426      186.12902      257.33339    
     49800  -29841.598      181.41427     -29660.184      184.85828      186.10743      257.43644    
     49900  -29830.696      179.93068     -29650.765      184.83407      186.08812      257.5395     
     50000  -29822.21       177.22516     -29644.985      184.81025      186.06528      257.64256    
     50100  -29811.608      176.30221     -29635.306      184.79037      186.04138      257.74561    
     50200  -29802.313      181.18224     -29621.131      184.77007      186.01638      257.84867    
     50300  -29787.213      179.81779     -29607.395      184.74801      185.99338      257.95173    
     50400  -29779.057      181.36353     -29597.693      184.72476      185.97277      258.05478    
     50500  -29767.36       178.13289     -29589.227      184.70063      185.95111      258.15784    
     50600  -29759.464      178.97646     -29580.487      184.67967      185.92901      258.2609     
     50700  -29748.537      178.69519     -29569.842      184.65841      185.90462      258.36396    
     50800  -29735.461      178.54632     -29556.915      184.63712      185.88267      258.46701    
     50900  -29721.375      180.77595     -29540.599      184.61264      185.861        258.57007    
     51000  -29716.338      183.49576     -29532.842      184.58959      185.84158      258.67313    
     51100  -29706.132      179.3864      -29526.745      184.56617      185.81921      258.77618    
     51200  -29695.397      177.00052     -29518.396      184.54551      185.79651      258.87924    
     51300  -29688.377      179.32985     -29509.047      184.52465      185.77254      258.9823     
     51400  -29677.371      178.88573     -29498.485      184.50331      185.75075      259.08535    
     51500  -29667.041      181.58136     -29485.46       184.47985      185.72938      259.18841    
     51600  -29649.286      177.86385     -29471.422      184.45813      185.70795      259.29147    
     51700  -29641.568      180.03852     -29461.53       184.43728      185.68452      259.39453    
     51800  -29634.487      178.17022     -29456.317      184.41668      185.66141      259.49758    
     51900  -29621.124      174.50152     -29446.622      184.39482      185.64027      259.60064    
     52000  -29613.558      178.68964     -29434.868      184.37036      185.62027      259.7037     
     52100  -29600.555      178.79476     -29421.761      184.34686      185.60073      259.80675    
     52200  -29590.824      183.33305     -29407.491      184.32569      185.57896      259.90981    
     52300  -29578.963      181.97048     -29396.993      184.30598      185.55364      260.01287    
     52400  -29571.067      178.59314     -29392.474      184.28811      185.53126      260.11592    
     52500  -29564.344      181.12138     -29383.222      184.26482      185.508        260.21898    
     52600  -29548.506      175.53669     -29372.969      184.2422       185.49072      260.32204    
     52700  -29541.196      178.76027     -29362.435      184.21644      185.46992      260.4251     
     52800  -29529.53       177.639       -29351.891      184.1969       185.44948      260.52815    
     52900  -29519.006      178.16728     -29340.839      184.17612      185.42491      260.63121    
     53000  -29508.379      179.43118     -29328.948      184.1567       185.40257      260.73427    
     53100  -29495.321      177.83587     -29317.485      184.13492      185.38078      260.83732    
     53200  -29488.045      179.10109     -29308.944      184.11277      185.35967      260.94038    
     53300  -29477.966      175.86554     -29302.101      184.09258      185.33798      261.04344    
     53400  -29467.254      175.90709     -29291.347      184.07197      185.31425      261.1465     
     53500  -29454.543      177.35546     -29277.187      184.05176      185.29351      261.24955    
     53600  -29445.381      184.52487     -29260.856      184.02806      185.272        261.35261    
     53700  -29429.567      179.06898     -29250.498      184.00602      185.25348      261.45567    
     53800  -29423.535      176.52986     -29247.005      183.98293      185.23241      261.55872    
     53900  -29410.721      174.35606     -29236.365      183.9636       185.21052      261.66178    
     54000  -29402.194      176.93899     -29225.255      183.94428      185.18606      261.76484    
     54100  -29391.502      177.94037     -29213.562      183.9251       185.16311      261.86789    
     54200  -29381.259      178.57006     -29202.689      183.90421      185.14245      261.97095    
     54300  -29371.513      178.26447     -29193.249      183.87962      185.12244      262.07401    
     54400  -29366.187      180.4908      -29185.696      183.85789      185.1041       262.17707    
     54500  -29352.386      175.91638     -29176.469      183.83504      185.0822       262.28012    
     54600  -29340.387      178.86767     -29161.52       183.81511      185.06109      262.38318    
     54700  -29323.997      178.01081     -29145.986      183.79417      185.03828      262.48624    
     54800  -29315.885      178.93189     -29136.953      183.77319      185.01712      262.58929    
     54900  -29307.19       177.45662     -29129.733      183.75265      184.99549      262.69235    
     55000  -29298.053      177.501       -29120.552      183.73135      184.97248      262.79541    
     55100  -29288.386      178.56195     -29109.824      183.71227      184.95202      262.89846    
     55200  -29276.186      175.89564     -29100.29       183.68928      184.92897      263.00152    
     55300  -29270.903      178.10271     -29092.801      183.66902      184.91078      263.10458    
     55400  -29258.096      174.67971     -29083.416      183.64315      184.88946      263.20764    
     55500  -29245.778      177.81464     -29067.963      183.62344      184.87209      263.31069    
     55600  -29233.188      179.6623      -29053.526      183.60034      184.84681      263.41375    
     55700  -29222.947      179.86896     -29043.078      183.5846       184.82594      263.51681    
     55800  -29211.259      176.45073     -29034.808      183.56277      184.80035      263.61986    
     55900  -29204.115      178.8257      -29025.29       183.54275      184.78183      263.72292    
     56000  -29190.852      176.5494      -29014.303      183.51842      184.76162      263.82598    
     56100  -29182.632      179.92628     -29002.706      183.49669      184.742        263.92903    
     56200  -29171.061      179.31509     -28991.746      183.47623      184.72059      264.03209    
     56300  -29161.292      180.07016     -28981.221      183.45516      184.69778      264.13515    
     56400  -29150.265      179.70206     -28970.563      183.43511      184.67773      264.23821    
     56500  -29135.805      175.32823     -28960.476      183.41136      184.65623      264.34126    
     56600  -29127.86       178.91097     -28948.949      183.39088      184.63716      264.44432    
     56700  -29118.384      179.8658      -28938.518      183.36948      184.61369      264.54738    
     56800  -29106.847      178.20551     -28928.641      183.35087      184.59126      264.65043    
     56900  -29098.742      179.71648     -28919.025      183.33111      184.56838      264.75349    
     57000  -29086.073      176.46402     -28909.609      183.30887      184.54768      264.85655    
     57100  -29076.272      176.11346     -28900.159      183.28596      184.52864      264.9596     
     57200  -29064.096      175.52972     -28888.567      183.26357      184.50836      265.06266    
     57300  -29052.652      180.07994     -28872.572      183.24344      184.48656      265.16572    
     57400  -29039.196      180.19637     -28858.999      183.22271      184.46362      265.26878    
     57500  -29029.561      179.02081     -28850.54       183.20211      184.44341      265.37183    
     57600  -29022.289      180.05715     -28842.232      183.1792       184.4226       265.47489    
     57700  -29007.979      176.92056     -28831.059      183.15805      184.40281      265.57795    
     57800  -29001.719      181.31439     -28820.405      183.13708      184.38081      265.681      
     57900  -28989.638      178.30011     -28811.338      183.11747      184.35755      265.78406    
     58000  -28979.904      175.71187     -28804.193      183.09786      184.33626      265.88712    
     58100  -28970.402      177.48167     -28792.92       183.07521      184.31547      265.99018    
     58200  -28957.558      182.49065     -28775.068      183.05246      184.29658      266.09323    
     58300  -28940.886      178.69361     -28762.193      183.02978      184.27499      266.19629    
     58400  -28933.789      180.82059     -28752.968      183.01031      184.25366      266.29935    
     58500  -28921.717      176.9366      -28744.78       182.98934      184.23072      266.4024     
     58600  -28912.948      178.37905     -28734.569      182.96905      184.20999      266.50546    
     58700  -28901.805      178.78858     -28723.016      182.94631      184.1889       266.60852    
     58800  -28889.139      178.69629     -28710.443      182.92532      184.1684       266.71157    
     58900  -28879.841      181.34403     -28698.497      182.90483      184.14551      266.81463    
     59000  -28866.376      177.2046      -28689.172      182.88505      184.12358      266.91769    
     59100  -28860.281      179.49113     -28680.79       182.86291      184.10191      267.02075    
     59200  -28847.131      176.80512     -28670.326      182.84196      184.08212      267.1238     
     59300  -28833.327      175.71268     -28657.615      182.82004      184.05983      267.22686    
     59400  -28823.49       182.1788      -28641.311      182.79981      184.03874      267.32992    
     59500  -28808.295      180.95887     -28627.336      182.77843      184.01766      267.43297    
     59600  -28801.05       180.84099     -28620.209      182.75579      183.99717      267.53603    
     59700  -28791.876      180.57045     -28611.305      182.7338       183.97792      267.63909    
     59800  -28779.956      178.95986     -28600.996      182.71126      183.95626      267.74214    
     59900  -28766.582      175.66439     -28590.918      182.69174      183.93499      267.8452     
     60000  -28755.879      173.92852     -28581.951      182.67097      183.91126      267.94826    
     60100  -28747.323      174.95485     -28572.368      182.65239      183.89024      268.05132    
     60200  -28738.698      176.17627     -28562.522      182.63065      183.86613      268.15437    
     60300  -28726.487      177.71256     -28548.775      182.61137      183.8467       268.25743    
     60400  -28709.893      178.41689     -28531.476      182.58665      183.82385      268.36049    
     60500  -28701.679      183.73604     -28517.943      182.56594      183.80678      268.46354    
     60600  -28688.498      179.03941     -28509.458      182.54067      183.78568      268.5666     
     60700  -28676.219      176.51177     -28499.707      182.52053      183.76684      268.66966    
     60800  -28666.891      178.42891     -28488.462      182.49904      183.74255      268.77271    
     60900  -28655.986      178.571       -28477.415      182.48166      183.72067      268.87577    
     61000  -28646.069      177.1939      -28468.875      182.46087      183.69553      268.97883    
     61100  -28636.44       177.75037     -28458.689      182.4419       183.67468      269.08189    
     61200  -28623.555      178.50991     -28445.045      182.41922      183.65251      269.18494    
     61300  -28605.441      180.09969     -28425.341      182.39782      183.63356      269.288      
     61400  -28593.3        179.75315     -28413.547      182.37386      183.61322      269.39106    
     61500  -28581.967      175.86294     -28406.104      182.35189      183.59423      269.49411    
     61600  -28577.417      180.49941     -28396.918      182.33066      183.57241      269.59717    
     61700  -28563.321      176.38708     -28386.934      182.31107      183.54979      269.70023    
     61800  -28553.12       177.8731      -28375.247      182.29157      183.52642      269.80328    
     61900  -28539.171      174.25823     -28364.913      182.27174      183.50417      269.90634    
     62000  -28530.466      174.57689     -28355.889      182.25103      183.48221      270.0094     
     62100  -28518.659      175.21266     -28343.446      182.22959      183.46053      270.11246    
     62200  -28503.016      177.56312     -28325.453      182.2081       183.44065      270.21551    
     62300  -28490.506      180.44593     -28310.06       182.18548      183.41916      270.31857    
     62400  -28480.458      181.0544      -28299.404      182.16394      183.39922      270.42163    
     62500  -28467.135      177.53572     -28289.599      182.14287      183.3776       270.52468    
     62600  -28456.72       177.96798     -28278.752      182.12302      183.35568      270.62774    
     62700  -28445.999      177.92028     -28268.079      182.10221      183.33342      270.7308     
     62800  -28435.901      178.85818     -28257.043      182.08143      183.31247      270.83386    
     62900  -28422.057      176.62167     -28245.435      182.05939      183.29134      270.93691    
     63000  -28413.997      175.43133     -28238.565      182.03856      183.27108      271.03997    
     63100  -28402.479      176.83841     -28225.64       182.01636      183.24931      271.14303    
     63200  -28385.347      176.77566     -28208.571      181.99643      183.2291       271.24608    
     63300  -28376.031      182.51943     -28193.511      181.97417      183.20625      271.34914    
     63400  -28361.794      180.68051     -28181.114      181.95577      183.18555      271.4522     
     63500  -28350.91       180.13983     -28170.77       181.93392      183.16213      271.55525    
     63600  -28336.38       178.29159     -28158.089      181.91427      183.1431       271.65831    
     63700  -28323.81       178.11461     -28145.695      181.89041      183.12163      271.76137    
     63800  -28312.258      177.50272     -28134.755      181.86969      183.10355      271.86443    
     63900  -28301.585      176.84407     -28124.741      181.84641      183.08149      271.96748    
     64000  -28287.683      176.62397     -28111.059      181.82748      183.06145      272.07054    
     64100  -28275.105      178.45934     -28096.645      181.8063       183.0377       272.1736     
     64200  -28260.741      177.91348     -28082.827      181.78816      183.01655      272.27665    
     64300  -28248.894      177.85186     -28071.042      181.7675       182.99324      272.37971    
     64400  -28239.511      178.81233     -28060.699      181.74794      182.97275      272.48277    
     64500  -28226.252      178.23068     -28048.022      181.72558      182.95176      272.58582    
     64600  -28210.945      177.44906     -28033.496      181.70336      182.93377      272.68888    
     64700  -28200.289      180.20795     -28020.081      181.68034      182.91412      272.79194    
     64800  -28187.932      178.96347     -28008.968      181.65997      182.8936       272.895      
     64900  -28172.462      174.1204      -27998.341      181.64068      182.87108      272.99805    
     65000  -28163.783      179.47386     -27984.309      181.62246      182.84815      273.10111    
     65100  -28147.14       177.33518     -27969.805      181.60273      182.82632      273.20417    
     65200  -28139.933      184.09175     -27955.842      181.58257      182.80537      273.30722    
     65300  -28123.178      179.31997     -27943.858      181.56164      182.78475      273.41028    
     65400  -28113.319      179.54044     -27933.778      181.54109      182.7648       273.51334    
     65500  -28095.522      175.99892     -27919.523      181.51924      182.74467      273.61639    
     65600  -28082.128      177.91024     -27904.218      181.49753      182.72558      273.71945    
     65700  -28067.836      178.38744     -27889.448      181.47634      182.70589      273.82251    
     65800  -28058.695      179.57974     -27879.115      181.45695      182.68439      273.92557    
     65900  -28044.973      177.94793     -27867.025      181.43845      182.66208      274.02862    
     66000  -28027.965      176.18024     -27851.785      181.41978      182.64038      274.13168    
     66100  -28017.808      181.41482     -27836.393      181.39969      182.61976      274.23474    
     66200  -28002.831      179.78324     -27823.048      181.3788       182.59966      274.33779    
     66300  -27987.828      174.8245      -27813.004      181.35988      182.58009      274.44085    
     66400  -27976.55       177.47733     -27799.073      181.33835      182.55861      274.54391    
     66500  -27956.329      174.49412     -27781.835      181.31871      182.54085      274.64696    
     66600  -27944.367      180.53644     -27763.831      181.29589      182.52052      274.75002    
     66700  -27930.741      179.23534     -27751.505      181.27718      182.50168      274.85308    
     66800  -27921.423      180.63432     -27740.788      181.25759      182.47958      274.95614    
     66900  -27908.783      181.47126     -27727.311      181.2396       182.4591       275.05919    
     67000  -27893.525      179.64539     -27713.88       181.21965      182.43746      275.16225    
     67100  -27879.951      179.2937      -27700.658      181.20166      182.41761      275.26531    
     67200  -27864.164      178.20567     -27685.958      181.18133      182.39712      275.36836    
     67300  -27847.723      176.80404     -27670.919      181.16124      182.37823      275.47142    
     67400  -27835.724      180.08244     -27655.641      181.14068      182.35924      275.57448    
     67500  -27818.514      178.47771     -27640.036      181.12138      182.33991      275.67754    
     67600  -27803.891      176.71494     -27627.176      181.1018       182.31938      275.78059    
     67700  -27791.634      177.37977     -27614.254      181.08311      182.30028      275.88365    
     67800  -27776.219      176.61009     -27599.609      181.06281      182.2801       275.98671    
     67900  -27761.595      177.37396     -27584.221      181.04451      182.26116      276.08976    
     68000  -27749.073      177.69485     -27571.378      181.02533      182.2406       276.19282    
     68100  -27732.749      175.02009     -27557.729      181.00708      182.22144      276.29588    
     68200  -27718.831      178.61721     -27540.214      180.98701      182.20204      276.39893    
     68300  -27707.425      182.74824     -27524.677      180.9682       182.18314      276.50199    
     68400  -27690.976      179.33805     -27511.638      180.94963      182.16279      276.60505    
     68500  -27676.111      179.40289     -27496.708      180.93126      182.14389      276.70811    
     68600  -27659.178      178.27674     -27480.902      180.91057      182.12559      276.81116    
     68700  -27644.239      179.11145     -27465.127      180.89053      182.10851      276.91422    
     68800  -27627.855      177.53115     -27450.323      180.87152      182.08882      277.01728    
     68900  -27614.659      180.58782     -27434.072      180.85469      182.0691       277.12033    
     69000  -27599.631      181.29242     -27418.338      180.83701      182.04837      277.22339    
     69100  -27580.531      176.83273     -27403.698      180.81992      182.02914      277.32645    
     69200  -27564.909      177.36344     -27387.546      180.8016       182.00931      277.4295     
     69300  -27551.551      179.74997     -27371.801      180.78379      181.9909       277.53256    
     69400  -27536.651      180.21284     -27356.438      180.76352      181.97302      277.63562    
     69500  -27520.13       180.00927     -27340.121      180.74346      181.95765      277.73868    
     69600  -27505.138      180.66221     -27324.475      180.7234       181.93973      277.84173    
     69700  -27488.66       179.26561     -27309.394      180.70694      181.92088      277.94479    
     69800  -27472.534      179.65899     -27292.875      180.69073      181.89969      278.04785    
     69900  -27456.866      180.21552     -27276.651      180.67406      181.87991      278.1509     
     70000  -27443.542      182.83253     -27260.71       180.65669      181.86166      278.25396    
     70100  -27425.132      180.33553     -27244.797      180.6386       181.84319      278.35702    
     70200  -27410.135      182.84527     -27227.29       180.61953      181.826        278.46007    
     70300  -27393.992      181.77585     -27212.216      180.60017      181.81017      278.56313    
     70400  -27379.943      183.09244     -27196.851      180.58095      181.79271      278.66619    
     70500  -27360.916      180.82693     -27180.089      180.56413      181.77434      278.76925    
     70600  -27347.291      183.62253     -27163.669      180.54819      181.75478      278.8723     
     70700  -27327.823      179.71641     -27148.106      180.53104      181.73572      278.97536    
     70800  -27313.716      182.07191     -27131.645      180.51379      181.71861      279.07842    
     70900  -27296.841      181.54756     -27115.294      180.49586      181.70037      279.18147    
     71000  -27282.904      185.21758     -27097.686      180.47899      181.68298      279.28453    
     71100  -27263.42       182.11674     -27081.303      180.46073      181.66549      279.38759    
     71200  -27244.259      180.45148     -27063.807      180.44255      181.64919      279.49065    
     71300  -27227.998      180.75537     -27047.243      180.4256       181.63155      279.5937     
     71400  -27214.227      184.49533     -27029.732      180.40855      181.61324      279.69676    
     71500  -27196.814      183.78254     -27013.032      180.3915       181.59615      279.79982    
     71600  -27178.194      182.35732     -26995.837      180.37348      181.57954      279.90287    
     71700  -27166.569      188.14578     -26978.423      180.35645      181.56143      280.00593    
     71800  -27141.644      180.41745     -26961.227      180.34129      181.54339      280.10899    
     71900  -27126.349      182.02249     -26944.326      180.32433      181.52505      280.21204    
     72000  -27111.758      183.75498     -26928.003      180.30672      181.50885      280.3151     
     72100  -27093.275      183.4321      -26909.842      180.28921      181.49205      280.41816    
     72200  -27079.093      186.87888     -26892.214      180.27234      181.47507      280.52122    
     72300  -27060.833      184.55313     -26876.28       180.25518      181.4583       280.62427    
     72400  -27040.267      183.13502     -26857.132      180.23765      181.44248      280.72733    
     72500  -27021.229      181.44569     -26839.784      180.22057      181.42493      280.83039    
     72600  -27010.131      187.55439     -26822.577      180.20579      181.4076       280.93344    
     72700  -26983.968      180.35044     -26803.618      180.18925      181.38893      281.0365     
     72800  -26970.24       183.42589     -26786.814      180.17387      181.37242      281.13956    
[...]
     81600  -32998.647      191.94929     -32806.698      179.86268      181.02311      290.20858    
     81700  -33004.163      173.45252     -32830.71       179.87439      181.04802      290.31163    
     81800  -33003.89       160.60715     -32843.283      179.8862       181.07341      290.41469    
     81900  -32989.808      163.22896     -32826.579      179.90052      181.09499      290.51775    
     82000  -32971.769      180.19395     -32791.575      179.91795      181.10966      290.6208     
     82100  -32951.669      185.32752     -32766.342      179.94078      181.12278      290.72386    
     82200  -32942.155      187.74413     -32754.411      179.96254      181.13502      290.82692    
     82300  -32942.96       185.3581      -32757.602      179.98859      181.15261      290.92997    
     82400  -32952.48       177.33413     -32775.146      180.01005      181.16806      291.03303    
     82500  -32970.406      177.78387     -32792.622      180.03498      181.18649      291.13609    
     82600  -32986.613      177.34131     -32809.272      180.05897      181.20041      291.23915    
     82700  -32990.78       169.54108     -32821.239      180.08595      181.21599      291.3422     
     82800  -32989.631      171.67983     -32817.951      180.11294      181.22081      291.44526    
     82900  -32983.174      179.74855     -32803.425      180.14186      181.2278       291.54832    
     83000  -32972.68       181.89009     -32790.789      180.16738      181.23532      291.65137    
     83100  -32962.746      178.57234     -32784.173      180.18894      181.24665      291.75443    
     83200  -32957.798      177.66321     -32780.135      180.21075      181.26192      291.85749    
     83300  -32956.688      178.61662     -32778.071      180.22603      181.27634      291.96054    
     83400  -32962.625      184.06035     -32778.565      180.24431      181.29657      292.0636     
     83500  -32967.538      182.41426     -32785.124      180.25879      181.30886      292.16666    
     83600  -32976.346      180.48209     -32795.864      180.28051      181.32526      292.26972    
     83700  -32984.613      174.9496      -32809.663      180.30073      181.34124      292.37277    
     83800  -32992.201      173.99844     -32818.202      180.32557      181.36023      292.47583    
     83900  -32991.642      172.9496      -32818.692      180.34485      181.37937      292.57889    
     84000  -32984.071      175.08484     -32808.986      180.36486      181.40318      292.68194    
     84100  -32971.419      178.36804     -32793.051      180.38228      181.42406      292.785      
     84200  -32956.38       180.59123     -32775.789      180.40796      181.4458       292.88806    
     84300  -32947.749      184.76598     -32762.983      180.4327       181.45976      292.99111    
     84400  -32951.654      186.96383     -32764.691      180.46764      181.47497      293.09417    
     84500  -32961.748      179.33623     -32782.411      180.50561      181.48222      293.19723    
     84600  -32975.638      173.66755     -32801.97       180.54699      181.49092      293.30029    
     84700  -32982.96       170.50702     -32812.453      180.58407      181.50059      293.40334    
     84800  -32983.938      174.37315     -32809.565      180.61465      181.51467      293.5064     
     84900  -32978.729      178.58645     -32800.143      180.64107      181.53514      293.60946    
     85000  -32973.526      180.37435     -32793.152      180.66541      181.55524      293.71251    
     85100  -32968.975      178.96269     -32790.013      180.69373      181.57253      293.81557    
     85200  -32962.371      176.02464     -32786.346      180.72738      181.58671      293.91863    
     85300  -32953.222      173.95407     -32779.268      180.76542      181.59829      294.02169    
     85400  -32948.35       181.21029     -32767.14       180.79836      181.60917      294.12474    
     85500  -32953.774      190.90345     -32762.87       180.82529      181.6291       294.2278     
     85600  -32959.416      181.63214     -32777.784      180.84618      181.65358      294.33086    
     85700  -32977.504      176.01232     -32801.492      180.86595      181.68162      294.43391    
     85800  -32985.303      166.62296     -32818.68       180.88628      181.70725      294.53697    
     85900  -32988.482      170.47098     -32818.011      180.9109       181.72723      294.64003    
     86000  -32980          177.07643     -32802.924      180.94136      181.7466       294.74308    
     86100  -32969.62       183.19122     -32786.429      180.97367      181.76539      294.84614    
     86200  -32961.342      181.48128     -32779.86       181.00602      181.78281      294.9492     
     86300  -32958.589      178.43191     -32780.157      181.03659      181.80125      295.05226    
     86400  -32956.533      175.35706     -32781.176      181.0684       181.82393      295.15531    
     86500  -32958.83       180.07587     -32778.754      181.10024      181.84393      295.25837    
     86600  -32962.612      182.23665     -32780.375      181.13564      181.864        295.36143    
     86700  -32970.409      178.64736     -32791.762      181.17401      181.87829      295.46448    
     86800  -32979.875      172.87704     -32806.998      181.21401      181.89336      295.56754    
     86900  -32981.665      168.41335     -32813.252      181.25665      181.90958      295.6706     
     87000  -32977.377      174.02447     -32803.352      181.29445      181.92283      295.77365    
     87100  -32962.133      178.63555     -32783.498      181.3326       181.94104      295.87671    
     87200  -32954.454      185.8293      -32768.625      181.36932      181.95845      295.97977    
     87300  -32951.084      179.64627     -32771.438      181.40647      181.97517      296.08283    
     87400  -32955.058      174.85818     -32780.199      181.44518      181.99368      296.18588    
     87500  -32960.901      176.17447     -32784.727      181.48236      182.01219      296.28894    
     87600  -32961.21       178.66581     -32782.544      181.51849      182.03073      296.392      
     87700  -32965.791      183.05415     -32782.737      181.55113      182.05143      296.49505    
     87800  -32970.994      180.38962     -32790.605      181.58464      182.07559      296.59811    
     87900  -32978.782      177.90922     -32800.873      181.6169       182.09981      296.70117    
     88000  -32980.269      172.71833     -32807.55       181.6506       182.12246      296.80422    
     88100  -32975.759      173.18607     -32802.573      181.68803      182.14557      296.90728    
     88200  -32965.57       177.92556     -32787.644      181.72674      182.16784      297.01034    
     88300  -32958.885      185.32968     -32773.556      181.76316      182.19029      297.1134     
     88400  -32958.132      185.86703     -32772.265      181.79985      182.2144       297.21645    
     88500  -32963.129      180.71287     -32782.416      181.83595      182.2396       297.31951    
     88600  -32968.264      175.55392     -32792.71       181.87161      182.26367      297.42257    
     88700  -32969.783      173.69333     -32796.09       181.90684      182.28434      297.52562    
     88800  -32967.966      177.13739     -32790.829      181.94543      182.30397      297.62868    
     88900  -32970.238      185.32617     -32784.912      181.98768      182.31962      297.73174    
     89000  -32967.245      180.61818     -32786.627      182.03102      182.33449      297.8348     
     89100  -32971.253      179.34119     -32791.912      182.07047      182.34954      297.93785    
     89200  -32969.603      173.16784     -32796.435      182.11128      182.36822      298.04091    
     89300  -32967.161      173.48801     -32793.673      182.1448       182.38785      298.14397    
     89400  -32959.53       177.65562     -32781.875      182.18124      182.40881      298.24702    
     89500  -32958.867      187.66435     -32771.202      182.21755      182.42733      298.35008    
     89600  -32962.668      186.63311     -32776.035      182.25604      182.44452      298.45314    
     89700  -32970.274      176.32297     -32793.951      182.29662      182.45922      298.55619    
     89800  -32980.36       172.03194     -32808.328      182.33523      182.47646      298.65925    
     89900  -32981.226      173.1044      -32808.121      182.37417      182.49775      298.76231    
     90000  -32971.13       177.22513     -32793.905      182.4077       182.51689      298.86537    
     90100  -32965.472      184.59465     -32780.877      182.44779      182.54456      298.96842    
     90200  -32963.743      182.49135     -32781.252      182.47937      182.56332      299.07148    
     90300  -32964.568      175.76249     -32788.805      182.52301      182.59097      299.17454    
     90400  -32966.698      174.89414     -32791.804      182.5602       182.60831      299.27759    
     90500  -32959.211      172.30668     -32786.904      182.60426      182.63303      299.38065    
     90600  -32963.132      184.64649     -32778.486      182.64267      182.65201      299.48371    
     90700  -32963.702      185.20738     -32778.495      182.68738      182.67597      299.58676    
     90800  -32963.498      175.33278     -32788.165      182.72628      182.69395      299.68982    
     90900  -32970.648      174.48639     -32796.162      182.77001      182.7154       299.79288    
     91000  -32970.185      173.47172     -32796.713      182.81443      182.73468      299.89594    
     91100  -32966.825      178.15011     -32788.675      182.8587       182.75162      299.99899    
     91200  -32962.831      183.10445     -32779.726      182.90256      182.76832      300.10205    
     91300  -32961.295      182.90197     -32778.394      182.94609      182.78303      300.20511    
     91400  -32962.805      179.65287     -32783.152      182.99122      182.79953      300.30816    
     91500  -32964.718      176.84111     -32787.877      183.03498      182.8134       300.41122    
     91600  -32966.283      176.44536     -32789.838      183.08089      182.83025      300.51428    
     91700  -32964.641      177.10107     -32787.54       183.12063      182.84385      300.61733    
     91800  -32969.529      183.30139     -32786.227      183.16104      182.86221      300.72039    
     91900  -32970.527      180.43768     -32790.089      183.20044      182.8792       300.82345    
     92000  -32970.085      175.17557     -32794.91       183.24175      182.89976      300.92651    
     92100  -32969.571      174.67351     -32794.897      183.28071      182.9196       301.02956    
     92200  -32964.291      176.74074     -32787.551      183.3238       182.9394       301.13262    
     92300  -32960.887      181.81412     -32779.073      183.36666      182.96038      301.23568    
     92400  -32956.107      180.05654     -32776.051      183.40771      182.98212      301.33873    
     92500  -32959.955      179.78904     -32780.166      183.45005      183.00538      301.44179    
     92600  -32966.879      177.33973     -32789.539      183.49106      183.02632      301.54485    
     92700  -32969.799      174.31244     -32795.486      183.53441      183.04854      301.6479     
     92800  -32969.813      175.44504     -32794.368      183.57747      183.06862      301.75096    
     92900  -32966.827      178.7003      -32788.126      183.62052      183.08804      301.85402    
     93000  -32964.86       181.62784     -32783.232      183.66598      183.10972      301.95708    
     93100  -32960.734      178.15224     -32782.582      183.70773      183.12561      302.06013    
     93200  -32960.413      176.58479     -32783.828      183.75297      183.14315      302.16319    
     93300  -32960.181      175.52523     -32784.656      183.79314      183.15679      302.26625    
     93400  -32959.695      176.93835     -32782.756      183.83546      183.17436      302.3693     
     93500  -32961.101      181.55274     -32779.549      183.8737       183.18869      302.47236    
     93600  -32960.132      180.62672     -32779.505      183.91329      183.2035       302.57542    
     93700  -32965.619      179.7546      -32785.865      183.95319      183.2165       302.67848    
     93800  -32969.315      174.24433     -32795.071      183.99412      183.2274       302.78153    
     93900  -32973.444      174.5724      -32798.872      184.03439      183.24093      302.88459    
     94000  -32966.59       172.55485     -32794.035      184.07301      183.25494      302.98765    
     94100  -32964.868      181.54694     -32783.321      184.1109       183.27007      303.0907     
     94200  -32959.965      183.71576     -32776.249      184.14427      183.28783      303.19376    
     94300  -32956.817      178.75917     -32778.058      184.17668      183.30864      303.29682    
     94400  -32962.157      177.012       -32785.145      184.21147      183.32946      303.39987    
     94500  -32964.847      174.40862     -32790.438      184.2467       183.3483       303.50293    
     94600  -32966.014      175.41395     -32790.6        184.28548      183.36661      303.60599    
     94700  -32964.585      177.38296     -32787.202      184.32479      183.38175      303.70905    
     94800  -32965.357      180.32035     -32785.036      184.36291      183.39577      303.8121     
     94900  -32969.746      181.85563     -32787.89       184.40162      183.41167      303.91516    
     95000  -32970.256      177.16471     -32793.091      184.4379       183.42482      304.01822    
     95100  -32969.347      175.79613     -32793.55       184.4778       183.4433       304.12127    
     95200  -32963.112      176.52567     -32786.586      184.50901      183.45626      304.22433    
     95300  -32960.408      182.51416     -32777.893      184.54872      183.47432      304.32739    
     95400  -32958.68       183.19358     -32775.486      184.58312      183.48302      304.43044    
     95500  -32961.044      179.01636     -32782.028      184.62443      183.49551      304.5335     
     95600  -32966.048      174.74363     -32791.305      184.66112      183.50346      304.63656    
     95700  -32967.912      171.19095     -32796.721      184.70112      183.51887      304.73962    
     95800  -32971.327      177.13183     -32794.196      184.72984      183.53249      304.84267    
     95900  -32962.325      176.20036     -32786.125      184.76264      183.55404      304.94573    
     96000  -32961.687      182.03074     -32779.656      184.78764      183.57011      305.04879    
     96100  -32959.759      179.61546     -32780.144      184.82126      183.59159      305.15184    
     96200  -32964.187      179.96776     -32784.219      184.8527       183.60372      305.2549     
     96300  -32961.791      174.99242     -32786.799      184.89532      183.61737      305.35796    
     96400  -32964.012      179.22702     -32784.785      184.93452      183.6249       305.46101    
     96500  -32959.296      179.75267     -32779.543      184.97718      183.63496      305.56407    
     96600  -32956.879      179.78339     -32777.095      185.01561      183.64423      305.66713    
     96700  -32962.028      181.03852     -32780.989      185.05139      183.6578       305.77019    
     96800  -32967.647      179.92711     -32787.72       185.08442      183.67289      305.87324    
     96900  -32969.618      176.70053     -32792.917      185.11711      183.68614      305.9763     
     97000  -32968.292      176.52463     -32791.767      185.15262      183.69911      306.07936    
     97100  -32965.598      181.21395     -32784.384      185.18726      183.70884      306.18241    
     97200  -32960.339      181.7327      -32778.607      185.22358      183.71735      306.28547    
     97300  -32961.576      181.15791     -32780.418      185.25865      183.72693      306.38853    
     97400  -32961.793      175.1899      -32786.603      185.29102      183.73884      306.49158    
     97500  -32965.89       176.80382     -32789.086      185.31976      183.75193      306.59464    
     97600  -32965.433      178.29763     -32787.136      185.34688      183.7665       306.6977     
     97700  -32963.598      178.98903     -32784.609      185.37503      183.78022      306.80076    
     97800  -32965.234      180.00599     -32785.228      185.40528      183.79213      306.90381    
     97900  -32967.194      177.83522     -32789.359      185.4377       183.80106      307.00687    
     98000  -32967.988      174.8639      -32793.124      185.47179      183.80897      307.10993    
     98100  -32964.621      173.47414     -32791.147      185.50607      183.81916      307.21298    
     98200  -32960.274      177.43208     -32782.842      185.53684      183.82838      307.31604    
     98300  -32955.76       180.19799     -32775.562      185.56709      183.84212      307.4191     
     98400  -32957.727      182.14563     -32775.581      185.59618      183.85487      307.52216    
     98500  -32959.956      178.1379      -32781.818      185.62603      183.86862      307.62521    
     98600  -32962.046      173.99268     -32788.053      185.657        183.88165      307.72827    
     98700  -32962.408      173.13297     -32789.275      185.68767      183.89061      307.83133    
     98800  -32958.612      173.93396     -32784.678      185.72095      183.90136      307.93438    
     98900  -32960.858      182.85544     -32778.002      185.75184      183.90937      308.03744    
     99000  -32958.38       181.50663     -32776.874      185.78247      183.92043      308.1405     
     99100  -32961.096      177.28161     -32783.815      185.80901      183.92875      308.24355    
     99200  -32963.801      173.10379     -32790.698      185.83678      183.93888      308.34661    
     99300  -32962.888      173.2245      -32789.664      185.86164      183.94532      308.44967    
     99400  -32961.213      180.00342     -32781.209      185.88867      183.95447      308.55273    
     99500  -32957.493      182.85504     -32774.638      185.91078      183.96177      308.65578    
     99600  -32962.432      185.22675     -32777.205      185.93411      183.97315      308.75884    
     99700  -32964.302      176.07815     -32788.224      185.95248      183.98327      308.8619     
     99800  -32970.773      173.39035     -32797.383      185.97563      183.99502      308.96495    
     99900  -32969.727      172.50756     -32797.22       185.99908      184.00332      309.06801    
    100000  -32965.739      177.8418      -32787.897      186.02649      184.01292      309.17107    
Loop time of 982.381 on 12 procs for 100000 steps with 4600 atoms

Performance: 8.795 ns/day, 2.729 hours/ns, 101.793 timesteps/s, 468.250 katom-step/s
91.4% CPU use with 12 MPI tasks x 1 OpenMP threads

MPI task timing breakdown:
Section |  min time  |  avg time  |  max time  |%varavg| %total
---------------------------------------------------------------
Pair    | 511.71     | 708.92     | 922.9      | 507.2 | 72.16
Neigh   | 2.2666     | 4.9586     | 7.3743     |  83.0 |  0.50
Comm    | 28.907     | 244.86     | 444.32     | 872.9 | 24.93
Output  | 0.25148    | 0.27158    | 0.29984    |   2.7 |  0.03
Modify  | 21.357     | 22.249     | 22.594     |   6.7 |  2.26
Other   |            | 1.118      |            |       |  0.11

Nlocal:        383.333 ave        1085 max          13 min
Histogram: 3 2 2 1 1 0 0 1 0 2
Nghost:        1460.25 ave        2390 max         374 min
Histogram: 3 1 0 0 1 1 1 0 3 2
Neighs:              0 ave           0 max           0 min
Histogram: 12 0 0 0 0 0 0 0 0 0

Total # of neighbors = 0
Ave neighs/atom = 0
Neighbor list builds = 629
Dangerous builds = 0
Total wall time: 0:16:22
