# LAMMPS data file written by OVITO Basic 3.3.5
1480 atoms
3 atom types
-100 100 xlo xhi
-100 100 ylo yhi
-2.3312515 46.1661715 zlo zhi

Masses

1 12.0107  # CNT
2 12.0107  # C60
3 12.0107  # C60

Atoms  # atomic

1 1 9.358311 0.0 0.0
2 1 9.253786 -1.394784 0.0
3 1 8.431547 -4.060419 0.0
4 1 7.732199 -5.271724 0.0
5 1 5.834811 -7.316622 0.0
6 1 4.679155 -8.104535 0.0
7 1 2.08242 -9.123678 0.0
8 1 0.699347 -9.332143 0.0
9 1 -2.08242 -9.123678 0.0
10 1 -3.418975 -8.711406 0.0
11 1 -5.834811 -7.316622 0.0
12 1 -6.860127 -6.365268 0.0
13 1 -8.431547 -4.060419 0.0
14 1 -8.942547 -2.75841 0.0
15 1 -9.358311 0.0 0.0
16 1 -9.253786 1.394784 0.0
17 1 -8.431547 4.060419 0.0
18 1 -7.732199 5.271724 0.0
19 1 -5.834811 7.316622 0.0
20 1 -4.679155 8.104535 0.0
21 1 -2.08242 9.123678 0.0
22 1 -0.699347 9.332143 0.0
23 1 2.08242 9.123678 0.0
24 1 3.418975 8.711406 0.0
25 1 5.834811 7.316622 0.0
26 1 6.860127 6.365268 0.0
27 1 8.431547 4.060419 0.0
28 1 8.942547 2.75841 0.0
29 1 9.123678 -2.08242 1.212436
30 1 8.711406 -3.418975 1.212436
31 1 7.316622 -5.834811 1.212436
32 1 6.365268 -6.860127 1.212436
33 1 4.060419 -8.431547 1.212436
34 1 2.75841 -8.942547 1.212436
35 1 0.0 -9.358311 1.212436
36 1 -1.394784 -9.253786 1.212436
37 1 -4.060419 -8.431547 1.212436
38 1 -5.271724 -7.732199 1.212436
39 1 -7.316622 -5.834811 1.212436
40 1 -8.104535 -4.679155 1.212436
41 1 -9.123678 -2.08242 1.212436
42 1 -9.332143 -0.699347 1.212436
43 1 -9.123678 2.08242 1.212436
44 1 -8.711406 3.418975 1.212436
45 1 -7.316622 5.834811 1.212436
46 1 -6.365268 6.860127 1.212436
47 1 -4.060419 8.431547 1.212436
48 1 -2.75841 8.942547 1.212436
49 1 0.0 9.358311 1.212436
50 1 1.394784 9.253786 1.212436
51 1 4.060419 8.431547 1.212436
52 1 5.271724 7.732199 1.212436
53 1 7.316622 5.834811 1.212436
54 1 8.104535 4.679155 1.212436
55 1 9.123678 2.08242 1.212436
56 1 9.332143 0.699347 1.212436
57 1 8.431547 -4.060419 2.424871
58 1 7.732199 -5.271724 2.424871
59 1 5.834811 -7.316622 2.424871
60 1 4.679155 -8.104535 2.424871
61 1 2.08242 -9.123678 2.424871
62 1 0.699347 -9.332143 2.424871
63 1 -2.08242 -9.123678 2.424871
64 1 -3.418975 -8.711406 2.424871
65 1 -5.834811 -7.316622 2.424871
66 1 -6.860127 -6.365268 2.424871
67 1 -8.431547 -4.060419 2.424871
68 1 -8.942547 -2.75841 2.424871
69 1 -9.358311 0.0 2.424871
70 1 -9.253786 1.394784 2.424871
71 1 -8.431547 4.060419 2.424871
72 1 -7.732199 5.271724 2.424871
73 1 -5.834811 7.316622 2.424871
74 1 -4.679155 8.104535 2.424871
75 1 -2.08242 9.123678 2.424871
76 1 -0.699347 9.332143 2.424871
77 1 2.08242 9.123678 2.424871
78 1 3.418975 8.711406 2.424871
79 1 5.834811 7.316622 2.424871
80 1 6.860127 6.365268 2.424871
81 1 8.431547 4.060419 2.424871
82 1 8.942547 2.75841 2.424871
83 1 9.358311 0.0 2.424871
84 1 9.253786 -1.394784 2.424871
85 1 7.316622 -5.834811 3.637307
86 1 6.365268 -6.860127 3.637307
87 1 4.060419 -8.431547 3.637307
88 1 2.75841 -8.942547 3.637307
89 1 0.0 -9.358311 3.637307
90 1 -1.394784 -9.253786 3.637307
91 1 -4.060419 -8.431547 3.637307
92 1 -5.271724 -7.732199 3.637307
93 1 -7.316622 -5.834811 3.637307
94 1 -8.104535 -4.679155 3.637307
95 1 -9.123678 -2.08242 3.637307
96 1 -9.332143 -0.699347 3.637307
97 1 -9.123678 2.08242 3.637307
98 1 -8.711406 3.418975 3.637307
99 1 -7.316622 5.834811 3.637307
100 1 -6.365268 6.860127 3.637307
101 1 -4.060419 8.431547 3.637307
102 1 -2.75841 8.942547 3.637307
103 1 0.0 9.358311 3.637307
104 1 1.394784 9.253786 3.637307
105 1 4.060419 8.431547 3.637307
106 1 5.271724 7.732199 3.637307
107 1 7.316622 5.834811 3.637307
108 1 8.104535 4.679155 3.637307
109 1 9.123678 2.08242 3.637307
110 1 9.332143 0.699347 3.637307
111 1 9.123678 -2.08242 3.637307
112 1 8.711406 -3.418975 3.637307
113 1 5.834811 -7.316622 4.849742
114 1 4.679155 -8.104535 4.849742
115 1 2.08242 -9.123678 4.849742
116 1 0.699347 -9.332143 4.849742
117 1 -2.08242 -9.123678 4.849742
118 1 -3.418975 -8.711406 4.849742
119 1 -5.834811 -7.316622 4.849742
120 1 -6.860127 -6.365268 4.849742
121 1 -8.431547 -4.060419 4.849742
122 1 -8.942547 -2.75841 4.849742
123 1 -9.358311 0.0 4.849742
124 1 -9.253786 1.394784 4.849742
125 1 -8.431547 4.060419 4.849742
126 1 -7.732199 5.271724 4.849742
127 1 -5.834811 7.316622 4.849742
128 1 -4.679155 8.104535 4.849742
129 1 -2.08242 9.123678 4.849742
130 1 -0.699347 9.332143 4.849742
131 1 2.08242 9.123678 4.849742
132 1 3.418975 8.711406 4.849742
133 1 5.834811 7.316622 4.849742
134 1 6.860127 6.365268 4.849742
135 1 8.431547 4.060419 4.849742
136 1 8.942547 2.75841 4.849742
137 1 9.358311 0.0 4.849742
138 1 9.253786 -1.394784 4.849742
139 1 8.431547 -4.060419 4.849742
140 1 7.732199 -5.271724 4.849742
141 1 4.060419 -8.431547 6.062178
142 1 2.75841 -8.942547 6.062178
143 1 0.0 -9.358311 6.062178
144 1 -1.394784 -9.253786 6.062178
145 1 -4.060419 -8.431547 6.062178
146 1 -5.271724 -7.732199 6.062178
147 1 -7.316622 -5.834811 6.062178
148 1 -8.104535 -4.679155 6.062178
149 1 -9.123678 -2.08242 6.062178
150 1 -9.332143 -0.699347 6.062178
151 1 -9.123678 2.08242 6.062178
152 1 -8.711406 3.418975 6.062178
153 1 -7.316622 5.834811 6.062178
154 1 -6.365268 6.860127 6.062178
155 1 -4.060419 8.431547 6.062178
156 1 -2.75841 8.942547 6.062178
157 1 0.0 9.358311 6.062178
158 1 1.394784 9.253786 6.062178
159 1 4.060419 8.431547 6.062178
160 1 5.271724 7.732199 6.062178
161 1 7.316622 5.834811 6.062178
162 1 8.104535 4.679155 6.062178
163 1 9.123678 2.08242 6.062178
164 1 9.332143 0.699347 6.062178
165 1 9.123678 -2.08242 6.062178
166 1 8.711406 -3.418975 6.062178
167 1 7.316622 -5.834811 6.062178
168 1 6.365268 -6.860127 6.062178
169 1 2.08242 -9.123678 7.274613
170 1 0.699347 -9.332143 7.274613
171 1 -2.08242 -9.123678 7.274613
172 1 -3.418975 -8.711406 7.274613
173 1 -5.834811 -7.316622 7.274613
174 1 -6.860127 -6.365268 7.274613
175 1 -8.431547 -4.060419 7.274613
176 1 -8.942547 -2.75841 7.274613
177 1 -9.358311 0.0 7.274613
178 1 -9.253786 1.394784 7.274613
179 1 -8.431547 4.060419 7.274613
180 1 -7.732199 5.271724 7.274613
181 1 -5.834811 7.316622 7.274613
182 1 -4.679155 8.104535 7.274613
183 1 -2.08242 9.123678 7.274613
184 1 -0.699347 9.332143 7.274613
185 1 2.08242 9.123678 7.274613
186 1 3.418975 8.711406 7.274613
187 1 5.834811 7.316622 7.274613
188 1 6.860127 6.365268 7.274613
189 1 8.431547 4.060419 7.274613
190 1 8.942547 2.75841 7.274613
191 1 9.358311 0.0 7.274613
192 1 9.253786 -1.394784 7.274613
193 1 8.431547 -4.060419 7.274613
194 1 7.732199 -5.271724 7.274613
195 1 5.834811 -7.316622 7.274613
196 1 4.679155 -8.104535 7.274613
197 1 0.0 -9.358311 8.487049
198 1 -1.394784 -9.253786 8.487049
199 1 -4.060419 -8.431547 8.487049
200 1 -5.271724 -7.732199 8.487049
201 1 -7.316622 -5.834811 8.487049
202 1 -8.104535 -4.679155 8.487049
203 1 -9.123678 -2.08242 8.487049
204 1 -9.332143 -0.699347 8.487049
205 1 -9.123678 2.08242 8.487049
206 1 -8.711406 3.418975 8.487049
207 1 -7.316622 5.834811 8.487049
208 1 -6.365268 6.860127 8.487049
209 1 -4.060419 8.431547 8.487049
210 1 -2.75841 8.942547 8.487049
211 1 0.0 9.358311 8.487049
212 1 1.394784 9.253786 8.487049
213 1 4.060419 8.431547 8.487049
214 1 5.271724 7.732199 8.487049
215 1 7.316622 5.834811 8.487049
216 1 8.104535 4.679155 8.487049
217 1 9.123678 2.08242 8.487049
218 1 9.332143 0.699347 8.487049
219 1 9.123678 -2.08242 8.487049
220 1 8.711406 -3.418975 8.487049
221 1 7.316622 -5.834811 8.487049
222 1 6.365268 -6.860127 8.487049
223 1 4.060419 -8.431547 8.487049
224 1 2.75841 -8.942547 8.487049
225 1 -2.08242 -9.123678 9.699485
226 1 -3.418975 -8.711406 9.699485
227 1 -5.834811 -7.316622 9.699485
228 1 -6.860127 -6.365268 9.699485
229 1 -8.431547 -4.060419 9.699485
230 1 -8.942547 -2.75841 9.699485
231 1 -9.358311 0.0 9.699485
232 1 -9.253786 1.394784 9.699485
233 1 -8.431547 4.060419 9.699485
234 1 -7.732199 5.271724 9.699485
235 1 -5.834811 7.316622 9.699485
236 1 -4.679155 8.104535 9.699485
237 1 -2.08242 9.123678 9.699485
238 1 -0.699347 9.332143 9.699485
239 1 2.08242 9.123678 9.699485
240 1 3.418975 8.711406 9.699485
241 1 5.834811 7.316622 9.699485
242 1 6.860127 6.365268 9.699485
243 1 8.431547 4.060419 9.699485
244 1 8.942547 2.75841 9.699485
245 1 9.358311 0.0 9.699485
246 1 9.253786 -1.394784 9.699485
247 1 8.431547 -4.060419 9.699485
248 1 7.732199 -5.271724 9.699485
249 1 5.834811 -7.316622 9.699485
250 1 4.679155 -8.104535 9.699485
251 1 2.08242 -9.123678 9.699485
252 1 0.699347 -9.332143 9.699485
253 1 -4.060419 -8.431547 10.91192
254 1 -5.271724 -7.732199 10.91192
255 1 -7.316622 -5.834811 10.91192
256 1 -8.104535 -4.679155 10.91192
257 1 -9.123678 -2.08242 10.91192
258 1 -9.332143 -0.699347 10.91192
259 1 -9.123678 2.08242 10.91192
260 1 -8.711406 3.418975 10.91192
261 1 -7.316622 5.834811 10.91192
262 1 -6.365268 6.860127 10.91192
263 1 -4.060419 8.431547 10.91192
264 1 -2.75841 8.942547 10.91192
265 1 0.0 9.358311 10.91192
266 1 1.394784 9.253786 10.91192
267 1 4.060419 8.431547 10.91192
268 1 5.271724 7.732199 10.91192
269 1 7.316622 5.834811 10.91192
270 1 8.104535 4.679155 10.91192
271 1 9.123678 2.08242 10.91192
272 1 9.332143 0.699347 10.91192
273 1 9.123678 -2.08242 10.91192
274 1 8.711406 -3.418975 10.91192
275 1 7.316622 -5.834811 10.91192
276 1 6.365268 -6.860127 10.91192
277 1 4.060419 -8.431547 10.91192
278 1 2.75841 -8.942547 10.91192
279 1 0.0 -9.358311 10.91192
280 1 -1.394784 -9.253786 10.91192
281 1 -5.834811 -7.316622 12.124356
282 1 -6.860127 -6.365268 12.124356
283 1 -8.431547 -4.060419 12.124356
284 1 -8.942547 -2.75841 12.124356
285 1 -9.358311 0.0 12.124356
286 1 -9.253786 1.394784 12.124356
287 1 -8.431547 4.060419 12.124356
288 1 -7.732199 5.271724 12.124356
289 1 -5.834811 7.316622 12.124356
290 1 -4.679155 8.104535 12.124356
291 1 -2.08242 9.123678 12.124356
292 1 -0.699347 9.332143 12.124356
293 1 2.08242 9.123678 12.124356
294 1 3.418975 8.711406 12.124356
295 1 5.834811 7.316622 12.124356
296 1 6.860127 6.365268 12.124356
297 1 8.431547 4.060419 12.124356
298 1 8.942547 2.75841 12.124356
299 1 9.358311 0.0 12.124356
300 1 9.253786 -1.394784 12.124356
301 1 8.431547 -4.060419 12.124356
302 1 7.732199 -5.271724 12.124356
303 1 5.834811 -7.316622 12.124356
304 1 4.679155 -8.104535 12.124356
305 1 2.08242 -9.123678 12.124356
306 1 0.699347 -9.332143 12.124356
307 1 -2.08242 -9.123678 12.124356
308 1 -3.418975 -8.711406 12.124356
309 1 -7.316622 -5.834811 13.336791
310 1 -8.104535 -4.679155 13.336791
311 1 -9.123678 -2.08242 13.336791
312 1 -9.332143 -0.699347 13.336791
313 1 -9.123678 2.08242 13.336791
314 1 -8.711406 3.418975 13.336791
315 1 -7.316622 5.834811 13.336791
316 1 -6.365268 6.860127 13.336791
317 1 -4.060419 8.431547 13.336791
318 1 -2.75841 8.942547 13.336791
319 1 0.0 9.358311 13.336791
320 1 1.394784 9.253786 13.336791
321 1 4.060419 8.431547 13.336791
322 1 5.271724 7.732199 13.336791
323 1 7.316622 5.834811 13.336791
324 1 8.104535 4.679155 13.336791
325 1 9.123678 2.08242 13.336791
326 1 9.332143 0.699347 13.336791
327 1 9.123678 -2.08242 13.336791
328 1 8.711406 -3.418975 13.336791
329 1 7.316622 -5.834811 13.336791
330 1 6.365268 -6.860127 13.336791
331 1 4.060419 -8.431547 13.336791
332 1 2.75841 -8.942547 13.336791
333 1 0.0 -9.358311 13.336791
334 1 -1.394784 -9.253786 13.336791
335 1 -4.060419 -8.431547 13.336791
336 1 -5.271724 -7.732199 13.336791
337 1 -8.431547 -4.060419 14.549227
338 1 -8.942547 -2.75841 14.549227
339 1 -9.358311 0.0 14.549227
340 1 -9.253786 1.394784 14.549227
341 1 -8.431547 4.060419 14.549227
342 1 -7.732199 5.271724 14.549227
343 1 -5.834811 7.316622 14.549227
344 1 -4.679155 8.104535 14.549227
345 1 -2.08242 9.123678 14.549227
346 1 -0.699347 9.332143 14.549227
347 1 2.08242 9.123678 14.549227
348 1 3.418975 8.711406 14.549227
349 1 5.834811 7.316622 14.549227
350 1 6.860127 6.365268 14.549227
351 1 8.431547 4.060419 14.549227
352 1 8.942547 2.75841 14.549227
353 1 9.358311 0.0 14.549227
354 1 9.253786 -1.394784 14.549227
355 1 8.431547 -4.060419 14.549227
356 1 7.732199 -5.271724 14.549227
357 1 5.834811 -7.316622 14.549227
358 1 4.679155 -8.104535 14.549227
359 1 2.08242 -9.123678 14.549227
360 1 0.699347 -9.332143 14.549227
361 1 -2.08242 -9.123678 14.549227
362 1 -3.418975 -8.711406 14.549227
363 1 -5.834811 -7.316622 14.549227
364 1 -6.860127 -6.365268 14.549227
365 1 -9.123678 -2.08242 15.761662
366 1 -9.332143 -0.699347 15.761662
367 1 -9.123678 2.08242 15.761662
368 1 -8.711406 3.418975 15.761662
369 1 -7.316622 5.834811 15.761662
370 1 -6.365268 6.860127 15.761662
371 1 -4.060419 8.431547 15.761662
372 1 -2.75841 8.942547 15.761662
373 1 0.0 9.358311 15.761662
374 1 1.394784 9.253786 15.761662
375 1 4.060419 8.431547 15.761662
376 1 5.271724 7.732199 15.761662
377 1 7.316622 5.834811 15.761662
378 1 8.104535 4.679155 15.761662
379 1 9.123678 2.08242 15.761662
380 1 9.332143 0.699347 15.761662
381 1 9.123678 -2.08242 15.761662
382 1 8.711406 -3.418975 15.761662
383 1 7.316622 -5.834811 15.761662
384 1 6.365268 -6.860127 15.761662
385 1 4.060419 -8.431547 15.761662
386 1 2.75841 -8.942547 15.761662
387 1 0.0 -9.358311 15.761662
388 1 -1.394784 -9.253786 15.761662
389 1 -4.060419 -8.431547 15.761662
390 1 -5.271724 -7.732199 15.761662
391 1 -7.316622 -5.834811 15.761662
392 1 -8.104535 -4.679155 15.761662
393 1 -9.358311 0.0 16.974098
394 1 -9.253786 1.394784 16.974098
395 1 -8.431547 4.060419 16.974098
396 1 -7.732199 5.271724 16.974098
397 1 -5.834811 7.316622 16.974098
398 1 -4.679155 8.104535 16.974098
399 1 -2.08242 9.123678 16.974098
400 1 -0.699347 9.332143 16.974098
401 1 2.08242 9.123678 16.974098
402 1 3.418975 8.711406 16.974098
403 1 5.834811 7.316622 16.974098
404 1 6.860127 6.365268 16.974098
405 1 8.431547 4.060419 16.974098
406 1 8.942547 2.75841 16.974098
407 1 9.358311 0.0 16.974098
408 1 9.253786 -1.394784 16.974098
409 1 8.431547 -4.060419 16.974098
410 1 7.732199 -5.271724 16.974098
411 1 5.834811 -7.316622 16.974098
412 1 4.679155 -8.104535 16.974098
413 1 2.08242 -9.123678 16.974098
414 1 0.699347 -9.332143 16.974098
415 1 -2.08242 -9.123678 16.974098
416 1 -3.418975 -8.711406 16.974098
417 1 -5.834811 -7.316622 16.974098
418 1 -6.860127 -6.365268 16.974098
419 1 -8.431547 -4.060419 16.974098
420 1 -8.942547 -2.75841 16.974098
421 1 -9.123678 2.08242 18.186533
422 1 -8.711406 3.418975 18.186533
423 1 -7.316622 5.834811 18.186533
424 1 -6.365268 6.860127 18.186533
425 1 -4.060419 8.431547 18.186533
426 1 -2.75841 8.942547 18.186533
427 1 0.0 9.358311 18.186533
428 1 1.394784 9.253786 18.186533
429 1 4.060419 8.431547 18.186533
430 1 5.271724 7.732199 18.186533
431 1 7.316622 5.834811 18.186533
432 1 8.104535 4.679155 18.186533
433 1 9.123678 2.08242 18.186533
434 1 9.332143 0.699347 18.186533
435 1 9.123678 -2.08242 18.186533
436 1 8.711406 -3.418975 18.186533
437 1 7.316622 -5.834811 18.186533
438 1 6.365268 -6.860127 18.186533
439 1 4.060419 -8.431547 18.186533
440 1 2.75841 -8.942547 18.186533
441 1 0.0 -9.358311 18.186533
442 1 -1.394784 -9.253786 18.186533
443 1 -4.060419 -8.431547 18.186533
444 1 -5.271724 -7.732199 18.186533
445 1 -7.316622 -5.834811 18.186533
446 1 -8.104535 -4.679155 18.186533
447 1 -9.123678 -2.08242 18.186533
448 1 -9.332143 -0.699347 18.186533
449 1 -8.431547 4.060419 19.398969
450 1 -7.732199 5.271724 19.398969
451 1 -5.834811 7.316622 19.398969
452 1 -4.679155 8.104535 19.398969
453 1 -2.08242 9.123678 19.398969
454 1 -0.699347 9.332143 19.398969
455 1 2.08242 9.123678 19.398969
456 1 3.418975 8.711406 19.398969
457 1 5.834811 7.316622 19.398969
458 1 6.860127 6.365268 19.398969
459 1 8.431547 4.060419 19.398969
460 1 8.942547 2.75841 19.398969
461 1 9.358311 0.0 19.398969
462 1 9.253786 -1.394784 19.398969
463 1 8.431547 -4.060419 19.398969
464 1 7.732199 -5.271724 19.398969
465 1 5.834811 -7.316622 19.398969
466 1 4.679155 -8.104535 19.398969
467 1 2.08242 -9.123678 19.398969
468 1 0.699347 -9.332143 19.398969
469 1 -2.08242 -9.123678 19.398969
470 1 -3.418975 -8.711406 19.398969
471 1 -5.834811 -7.316622 19.398969
472 1 -6.860127 -6.365268 19.398969
473 1 -8.431547 -4.060419 19.398969
474 1 -8.942547 -2.75841 19.398969
475 1 -9.358311 0.0 19.398969
476 1 -9.253786 1.394784 19.398969
477 1 -7.316622 5.834811 20.611405
478 1 -6.365268 6.860127 20.611405
479 1 -4.060419 8.431547 20.611405
480 1 -2.75841 8.942547 20.611405
481 1 0.0 9.358311 20.611405
482 1 1.394784 9.253786 20.611405
483 1 4.060419 8.431547 20.611405
484 1 5.271724 7.732199 20.611405
485 1 7.316622 5.834811 20.611405
486 1 8.104535 4.679155 20.611405
487 1 9.123678 2.08242 20.611405
488 1 9.332143 0.699347 20.611405
489 1 9.123678 -2.08242 20.611405
490 1 8.711406 -3.418975 20.611405
491 1 7.316622 -5.834811 20.611405
492 1 6.365268 -6.860127 20.611405
493 1 4.060419 -8.431547 20.611405
494 1 2.75841 -8.942547 20.611405
495 1 0.0 -9.358311 20.611405
496 1 -1.394784 -9.253786 20.611405
497 1 -4.060419 -8.431547 20.611405
498 1 -5.271724 -7.732199 20.611405
499 1 -7.316622 -5.834811 20.611405
500 1 -8.104535 -4.679155 20.611405
501 1 -9.123678 -2.08242 20.611405
502 1 -9.332143 -0.699347 20.611405
503 1 -9.123678 2.08242 20.611405
504 1 -8.711406 3.418975 20.611405
505 1 -5.834811 7.316622 21.82384
506 1 -4.679155 8.104535 21.82384
507 1 -2.08242 9.123678 21.82384
508 1 -0.699347 9.332143 21.82384
509 1 2.08242 9.123678 21.82384
510 1 3.418975 8.711406 21.82384
511 1 5.834811 7.316622 21.82384
512 1 6.860127 6.365268 21.82384
513 1 8.431547 4.060419 21.82384
514 1 8.942547 2.75841 21.82384
515 1 9.358311 0.0 21.82384
516 1 9.253786 -1.394784 21.82384
517 1 8.431547 -4.060419 21.82384
518 1 7.732199 -5.271724 21.82384
519 1 5.834811 -7.316622 21.82384
520 1 4.679155 -8.104535 21.82384
521 1 2.08242 -9.123678 21.82384
522 1 0.699347 -9.332143 21.82384
523 1 -2.08242 -9.123678 21.82384
524 1 -3.418975 -8.711406 21.82384
525 1 -5.834811 -7.316622 21.82384
526 1 -6.860127 -6.365268 21.82384
527 1 -8.431547 -4.060419 21.82384
528 1 -8.942547 -2.75841 21.82384
529 1 -9.358311 0.0 21.82384
530 1 -9.253786 1.394784 21.82384
531 1 -8.431547 4.060419 21.82384
532 1 -7.732199 5.271724 21.82384
533 1 -4.060419 8.431547 23.036276
534 1 -2.75841 8.942547 23.036276
535 1 0.0 9.358311 23.036276
536 1 1.394784 9.253786 23.036276
537 1 4.060419 8.431547 23.036276
538 1 5.271724 7.732199 23.036276
539 1 7.316622 5.834811 23.036276
540 1 8.104535 4.679155 23.036276
541 1 9.123678 2.08242 23.036276
542 1 9.332143 0.699347 23.036276
543 1 9.123678 -2.08242 23.036276
544 1 8.711406 -3.418975 23.036276
545 1 7.316622 -5.834811 23.036276
546 1 6.365268 -6.860127 23.036276
547 1 4.060419 -8.431547 23.036276
548 1 2.75841 -8.942547 23.036276
549 1 0.0 -9.358311 23.036276
550 1 -1.394784 -9.253786 23.036276
551 1 -4.060419 -8.431547 23.036276
552 1 -5.271724 -7.732199 23.036276
553 1 -7.316622 -5.834811 23.036276
554 1 -8.104535 -4.679155 23.036276
555 1 -9.123678 -2.08242 23.036276
556 1 -9.332143 -0.699347 23.036276
557 1 -9.123678 2.08242 23.036276
558 1 -8.711406 3.418975 23.036276
559 1 -7.316622 5.834811 23.036276
560 1 -6.365268 6.860127 23.036276
561 1 -2.08242 9.123678 24.248711
562 1 -0.699347 9.332143 24.248711
563 1 2.08242 9.123678 24.248711
564 1 3.418975 8.711406 24.248711
565 1 5.834811 7.316622 24.248711
566 1 6.860127 6.365268 24.248711
567 1 8.431547 4.060419 24.248711
568 1 8.942547 2.75841 24.248711
569 1 9.358311 0.0 24.248711
570 1 9.253786 -1.394784 24.248711
571 1 8.431547 -4.060419 24.248711
572 1 7.732199 -5.271724 24.248711
573 1 5.834811 -7.316622 24.248711
574 1 4.679155 -8.104535 24.248711
575 1 2.08242 -9.123678 24.248711
576 1 0.699347 -9.332143 24.248711
577 1 -2.08242 -9.123678 24.248711
578 1 -3.418975 -8.711406 24.248711
579 1 -5.834811 -7.316622 24.248711
580 1 -6.860127 -6.365268 24.248711
581 1 -8.431547 -4.060419 24.248711
582 1 -8.942547 -2.75841 24.248711
583 1 -9.358311 0.0 24.248711
584 1 -9.253786 1.394784 24.248711
585 1 -8.431547 4.060419 24.248711
586 1 -7.732199 5.271724 24.248711
587 1 -5.834811 7.316622 24.248711
588 1 -4.679155 8.104535 24.248711
589 1 0.0 9.358311 25.461147
590 1 1.394784 9.253786 25.461147
591 1 4.060419 8.431547 25.461147
592 1 5.271724 7.732199 25.461147
593 1 7.316622 5.834811 25.461147
594 1 8.104535 4.679155 25.461147
595 1 9.123678 2.08242 25.461147
596 1 9.332143 0.699347 25.461147
597 1 9.123678 -2.08242 25.461147
598 1 8.711406 -3.418975 25.461147
599 1 7.316622 -5.834811 25.461147
600 1 6.365268 -6.860127 25.461147
601 1 4.060419 -8.431547 25.461147
602 1 2.75841 -8.942547 25.461147
603 1 0.0 -9.358311 25.461147
604 1 -1.394784 -9.253786 25.461147
605 1 -4.060419 -8.431547 25.461147
606 1 -5.271724 -7.732199 25.461147
607 1 -7.316622 -5.834811 25.461147
608 1 -8.104535 -4.679155 25.461147
609 1 -9.123678 -2.08242 25.461147
610 1 -9.332143 -0.699347 25.461147
611 1 -9.123678 2.08242 25.461147
612 1 -8.711406 3.418975 25.461147
613 1 -7.316622 5.834811 25.461147
614 1 -6.365268 6.860127 25.461147
615 1 -4.060419 8.431547 25.461147
616 1 -2.75841 8.942547 25.461147
617 1 2.08242 9.123678 26.673582
618 1 3.418975 8.711406 26.673582
619 1 5.834811 7.316622 26.673582
620 1 6.860127 6.365268 26.673582
621 1 8.431547 4.060419 26.673582
622 1 8.942547 2.75841 26.673582
623 1 9.358311 0.0 26.673582
624 1 9.253786 -1.394784 26.673582
625 1 8.431547 -4.060419 26.673582
626 1 7.732199 -5.271724 26.673582
627 1 5.834811 -7.316622 26.673582
628 1 4.679155 -8.104535 26.673582
629 1 2.08242 -9.123678 26.673582
630 1 0.699347 -9.332143 26.673582
631 1 -2.08242 -9.123678 26.673582
632 1 -3.418975 -8.711406 26.673582
633 1 -5.834811 -7.316622 26.673582
634 1 -6.860127 -6.365268 26.673582
635 1 -8.431547 -4.060419 26.673582
636 1 -8.942547 -2.75841 26.673582
637 1 -9.358311 0.0 26.673582
638 1 -9.253786 1.394784 26.673582
639 1 -8.431547 4.060419 26.673582
640 1 -7.732199 5.271724 26.673582
641 1 -5.834811 7.316622 26.673582
642 1 -4.679155 8.104535 26.673582
643 1 -2.08242 9.123678 26.673582
644 1 -0.699347 9.332143 26.673582
645 1 4.060419 8.431547 27.886018
646 1 5.271724 7.732199 27.886018
647 1 7.316622 5.834811 27.886018
648 1 8.104535 4.679155 27.886018
649 1 9.123678 2.08242 27.886018
650 1 9.332143 0.699347 27.886018
651 1 9.123678 -2.08242 27.886018
652 1 8.711406 -3.418975 27.886018
653 1 7.316622 -5.834811 27.886018
654 1 6.365268 -6.860127 27.886018
655 1 4.060419 -8.431547 27.886018
656 1 2.75841 -8.942547 27.886018
657 1 0.0 -9.358311 27.886018
658 1 -1.394784 -9.253786 27.886018
659 1 -4.060419 -8.431547 27.886018
660 1 -5.271724 -7.732199 27.886018
661 1 -7.316622 -5.834811 27.886018
662 1 -8.104535 -4.679155 27.886018
663 1 -9.123678 -2.08242 27.886018
664 1 -9.332143 -0.699347 27.886018
665 1 -9.123678 2.08242 27.886018
666 1 -8.711406 3.418975 27.886018
667 1 -7.316622 5.834811 27.886018
668 1 -6.365268 6.860127 27.886018
669 1 -4.060419 8.431547 27.886018
670 1 -2.75841 8.942547 27.886018
671 1 0.0 9.358311 27.886018
672 1 1.394784 9.253786 27.886018
673 1 5.834811 7.316622 29.098454
674 1 6.860127 6.365268 29.098454
675 1 8.431547 4.060419 29.098454
676 1 8.942547 2.75841 29.098454
677 1 9.358311 0.0 29.098454
678 1 9.253786 -1.394784 29.098454
679 1 8.431547 -4.060419 29.098454
680 1 7.732199 -5.271724 29.098454
681 1 5.834811 -7.316622 29.098454
682 1 4.679155 -8.104535 29.098454
683 1 2.08242 -9.123678 29.098454
684 1 0.699347 -9.332143 29.098454
685 1 -2.08242 -9.123678 29.098454
686 1 -3.418975 -8.711406 29.098454
687 1 -5.834811 -7.316622 29.098454
688 1 -6.860127 -6.365268 29.098454
689 1 -8.431547 -4.060419 29.098454
690 1 -8.942547 -2.75841 29.098454
691 1 -9.358311 0.0 29.098454
692 1 -9.253786 1.394784 29.098454
693 1 -8.431547 4.060419 29.098454
694 1 -7.732199 5.271724 29.098454
695 1 -5.834811 7.316622 29.098454
696 1 -4.679155 8.104535 29.098454
697 1 -2.08242 9.123678 29.098454
698 1 -0.699347 9.332143 29.098454
699 1 2.08242 9.123678 29.098454
700 1 3.418975 8.711406 29.098454
701 1 7.316622 5.834811 30.310889
702 1 8.104535 4.679155 30.310889
703 1 9.123678 2.08242 30.310889
704 1 9.332143 0.699347 30.310889
705 1 9.123678 -2.08242 30.310889
706 1 8.711406 -3.418975 30.310889
707 1 7.316622 -5.834811 30.310889
708 1 6.365268 -6.860127 30.310889
709 1 4.060419 -8.431547 30.310889
710 1 2.75841 -8.942547 30.310889
711 1 0.0 -9.358311 30.310889
712 1 -1.394784 -9.253786 30.310889
713 1 -4.060419 -8.431547 30.310889
714 1 -5.271724 -7.732199 30.310889
715 1 -7.316622 -5.834811 30.310889
716 1 -8.104535 -4.679155 30.310889
717 1 -9.123678 -2.08242 30.310889
718 1 -9.332143 -0.699347 30.310889
719 1 -9.123678 2.08242 30.310889
720 1 -8.711406 3.418975 30.310889
721 1 -7.316622 5.834811 30.310889
722 1 -6.365268 6.860127 30.310889
723 1 -4.060419 8.431547 30.310889
724 1 -2.75841 8.942547 30.310889
725 1 0.0 9.358311 30.310889
726 1 1.394784 9.253786 30.310889
727 1 4.060419 8.431547 30.310889
728 1 5.271724 7.732199 30.310889
729 1 8.431547 4.060419 31.523325
730 1 8.942547 2.75841 31.523325
731 1 9.358311 0.0 31.523325
732 1 9.253786 -1.394784 31.523325
733 1 8.431547 -4.060419 31.523325
734 1 7.732199 -5.271724 31.523325
735 1 5.834811 -7.316622 31.523325
736 1 4.679155 -8.104535 31.523325
737 1 2.08242 -9.123678 31.523325
738 1 0.699347 -9.332143 31.523325
739 1 -2.08242 -9.123678 31.523325
740 1 -3.418975 -8.711406 31.523325
741 1 -5.834811 -7.316622 31.523325
742 1 -6.860127 -6.365268 31.523325
743 1 -8.431547 -4.060419 31.523325
744 1 -8.942547 -2.75841 31.523325
745 1 -9.358311 0.0 31.523325
746 1 -9.253786 1.394784 31.523325
747 1 -8.431547 4.060419 31.523325
748 1 -7.732199 5.271724 31.523325
749 1 -5.834811 7.316622 31.523325
750 1 -4.679155 8.104535 31.523325
751 1 -2.08242 9.123678 31.523325
752 1 -0.699347 9.332143 31.523325
753 1 2.08242 9.123678 31.523325
754 1 3.418975 8.711406 31.523325
755 1 5.834811 7.316622 31.523325
756 1 6.860127 6.365268 31.523325
757 1 9.123678 2.08242 32.73576
758 1 9.332143 0.699347 32.73576
759 1 9.123678 -2.08242 32.73576
760 1 8.711406 -3.418975 32.73576
761 1 7.316622 -5.834811 32.73576
762 1 6.365268 -6.860127 32.73576
763 1 4.060419 -8.431547 32.73576
764 1 2.75841 -8.942547 32.73576
765 1 0.0 -9.358311 32.73576
766 1 -1.394784 -9.253786 32.73576
767 1 -4.060419 -8.431547 32.73576
768 1 -5.271724 -7.732199 32.73576
769 1 -7.316622 -5.834811 32.73576
770 1 -8.104535 -4.679155 32.73576
771 1 -9.123678 -2.08242 32.73576
772 1 -9.332143 -0.699347 32.73576
773 1 -9.123678 2.08242 32.73576
774 1 -8.711406 3.418975 32.73576
775 1 -7.316622 5.834811 32.73576
776 1 -6.365268 6.860127 32.73576
777 1 -4.060419 8.431547 32.73576
778 1 -2.75841 8.942547 32.73576
779 1 0.0 9.358311 32.73576
780 1 1.394784 9.253786 32.73576
781 1 4.060419 8.431547 32.73576
782 1 5.271724 7.732199 32.73576
783 1 7.316622 5.834811 32.73576
784 1 8.104535 4.679155 32.73576
785 1 9.358311 0.0 33.948196
786 1 9.253786 -1.394784 33.948196
787 1 8.431547 -4.060419 33.948196
788 1 7.732199 -5.271724 33.948196
789 1 5.834811 -7.316622 33.948196
790 1 4.679155 -8.104535 33.948196
791 1 2.08242 -9.123678 33.948196
792 1 0.699347 -9.332143 33.948196
793 1 -2.08242 -9.123678 33.948196
794 1 -3.418975 -8.711406 33.948196
795 1 -5.834811 -7.316622 33.948196
796 1 -6.860127 -6.365268 33.948196
797 1 -8.431547 -4.060419 33.948196
798 1 -8.942547 -2.75841 33.948196
799 1 -9.358311 0.0 33.948196
800 1 -9.253786 1.394784 33.948196
801 1 -8.431547 4.060419 33.948196
802 1 -7.732199 5.271724 33.948196
803 1 -5.834811 7.316622 33.948196
804 1 -4.679155 8.104535 33.948196
805 1 -2.08242 9.123678 33.948196
806 1 -0.699347 9.332143 33.948196
807 1 2.08242 9.123678 33.948196
808 1 3.418975 8.711406 33.948196
809 1 5.834811 7.316622 33.948196
810 1 6.860127 6.365268 33.948196
811 1 8.431547 4.060419 33.948196
812 1 8.942547 2.75841 33.948196
813 1 9.123678 -2.08242 35.160631
814 1 8.711406 -3.418975 35.160631
815 1 7.316622 -5.834811 35.160631
816 1 6.365268 -6.860127 35.160631
817 1 4.060419 -8.431547 35.160631
818 1 2.75841 -8.942547 35.160631
819 1 0.0 -9.358311 35.160631
820 1 -1.394784 -9.253786 35.160631
821 1 -4.060419 -8.431547 35.160631
822 1 -5.271724 -7.732199 35.160631
823 1 -7.316622 -5.834811 35.160631
824 1 -8.104535 -4.679155 35.160631
825 1 -9.123678 -2.08242 35.160631
826 1 -9.332143 -0.699347 35.160631
827 1 -9.123678 2.08242 35.160631
828 1 -8.711406 3.418975 35.160631
829 1 -7.316622 5.834811 35.160631
830 1 -6.365268 6.860127 35.160631
831 1 -4.060419 8.431547 35.160631
832 1 -2.75841 8.942547 35.160631
833 1 0.0 9.358311 35.160631
834 1 1.394784 9.253786 35.160631
835 1 4.060419 8.431547 35.160631
836 1 5.271724 7.732199 35.160631
837 1 7.316622 5.834811 35.160631
838 1 8.104535 4.679155 35.160631
839 1 9.123678 2.08242 35.160631
840 1 9.332143 0.699347 35.160631
841 1 8.431547 -4.060419 36.373067
842 1 7.732199 -5.271724 36.373067
843 1 5.834811 -7.316622 36.373067
844 1 4.679155 -8.104535 36.373067
845 1 2.08242 -9.123678 36.373067
846 1 0.699347 -9.332143 36.373067
847 1 -2.08242 -9.123678 36.373067
848 1 -3.418975 -8.711406 36.373067
849 1 -5.834811 -7.316622 36.373067
850 1 -6.860127 -6.365268 36.373067
851 1 -8.431547 -4.060419 36.373067
852 1 -8.942547 -2.75841 36.373067
853 1 -9.358311 0.0 36.373067
854 1 -9.253786 1.394784 36.373067
855 1 -8.431547 4.060419 36.373067
856 1 -7.732199 5.271724 36.373067
857 1 -5.834811 7.316622 36.373067
858 1 -4.679155 8.104535 36.373067
859 1 -2.08242 9.123678 36.373067
860 1 -0.699347 9.332143 36.373067
861 1 2.08242 9.123678 36.373067
862 1 3.418975 8.711406 36.373067
863 1 5.834811 7.316622 36.373067
864 1 6.860127 6.365268 36.373067
865 1 8.431547 4.060419 36.373067
866 1 8.942547 2.75841 36.373067
867 1 9.358311 0.0 36.373067
868 1 9.253786 -1.394784 36.373067
869 1 7.316622 -5.834811 37.585503
870 1 6.365268 -6.860127 37.585503
871 1 4.060419 -8.431547 37.585503
872 1 2.75841 -8.942547 37.585503
873 1 0.0 -9.358311 37.585503
874 1 -1.394784 -9.253786 37.585503
875 1 -4.060419 -8.431547 37.585503
876 1 -5.271724 -7.732199 37.585503
877 1 -7.316622 -5.834811 37.585503
878 1 -8.104535 -4.679155 37.585503
879 1 -9.123678 -2.08242 37.585503
880 1 -9.332143 -0.699347 37.585503
881 1 -9.123678 2.08242 37.585503
882 1 -8.711406 3.418975 37.585503