LAMMPS (2 Aug 2023 - Update 3)
OMP_NUM_THREADS environment is not set. Defaulting to 1 thread. (src/comm.cpp:98)
  using 1 OpenMP thread(s) per MPI task
Reading data file ...
  orthogonal box = (-100 -100 -2.3312515) to (100 100 46.166171)
  3 by 4 by 1 MPI processor grid
  reading atoms ...
  1480 atoms
  read_data CPU = 0.006 seconds
Replication is creating a 1x1x13 = 13 times larger system...
  orthogonal box = (-100 -100 -2.3312515) to (100 100 628.13525)
  1 by 2 by 6 MPI processor grid
  19240 atoms
  replicate CPU = 0.002 seconds
4680 atoms in group SR
Deleted 4680 atoms, new total = 14560
System init for write_data ...
WARNING: Communication cutoff is 0.0. No ghost atoms will be generated. Atoms may get lost. (src/comm_brick.cpp:210)
Reading airebo potential file CH.airebo with DATE: 2011-10-25
Reading airebo potential file CH.airebo with DATE: 2011-10-25
Reading airebo potential file CH.airebo with DATE: 2011-10-25
Neighbor list info ...
  update: every = 1 steps, delay = 0 steps, check = yes
  max neighbors/atom: 2000, page size: 100000
  master list distance cutoff = 13.2
  ghost atom cutoff = 13.2
  binsize = 6.6, bins = 31 31 96
  6 neighbor lists, perpetual/occasional/extra = 6 0 0
  (1) pair airebo, perpetual, skip from (5)
      attributes: full, newton on, ghost
      pair build: skip/ghost
      stencil: none
      bin: none
  (2) pair airebo, perpetual, skip from (5)
      attributes: full, newton on, ghost
      pair build: skip/ghost
      stencil: none
      bin: none
  (3) pair airebo, perpetual, skip from (5)
      attributes: full, newton on, ghost
      pair build: skip/ghost
      stencil: none
      bin: none
  (4) pair lj/cut, perpetual, skip from (6)
      attributes: half, newton on, cut 13
      pair build: skip
      stencil: none
      bin: none
  (5) neighbor class addition, perpetual
      attributes: full, newton on, ghost
      pair build: full/bin/ghost
      stencil: full/ghost/bin/3d
      bin: standard
  (6) neighbor class addition, perpetual
      attributes: half, newton on, cut 13
      pair build: half/bin/atomonly/newton
      stencil: half/bin/3d
      bin: standard
Setting up sd style minimization ...
  Unit style    : metal
  Current step  : 0
Per MPI rank memory allocation (min/avg/max) = 12.89 | 12.89 | 12.89 Mbytes
   Step          Temp          E_pair         E_mol          TotEng         Press     
         0   0             -107927.24      0             -107927.24     -48.029154    
         1   0             -107927.39      0             -107927.39     -47.94229     
Loop time of 0.0579332 on 12 procs for 1 steps with 14560 atoms

90.6% CPU use with 12 MPI tasks x 1 OpenMP threads

Minimization stats:
  Stopping criterion = energy tolerance
  Energy initial, next-to-last, final = 
     -107927.237764147  -107927.237764147  -107927.392473105
  Force two-norm initial, final = 6.3336952 1.0304443
  Force max component initial, final = 0.052442243 0.0085447709
  Final line search alpha, max atom move = 1 0.0085447709
  Iterations, force evaluations = 1 2

MPI task timing breakdown:
Section |  min time  |  avg time  |  max time  |%varavg| %total
---------------------------------------------------------------
Pair    | 0.033879   | 0.042015   | 0.057168   |   4.7 | 72.52
Neigh   | 0          | 0          | 0          |   0.0 |  0.00
Comm    | 0.00036997 | 0.015083   | 0.023632   |   8.0 | 26.03
Output  | 0          | 0          | 0          |   0.0 |  0.00
Modify  | 0          | 0          | 0          |   0.0 |  0.00
Other   |            | 0.0008354  |            |       |  1.44

Nlocal:        1213.33 ave        1262 max        1161 min
Histogram: 2 4 0 0 0 0 0 0 2 4
Nghost:           1820 ave        1877 max        1762 min
Histogram: 2 2 2 0 0 0 0 2 2 2
Neighs:              0 ave           0 max           0 min
Histogram: 12 0 0 0 0 0 0 0 0 0

Total # of neighbors = 0
Ave neighs/atom = 0
Neighbor list builds = 0
Dangerous builds = 0
Setting up Verlet run ...
  Unit style    : metal
  Current step  : 1
  Time step     : 0.001
Per MPI rank memory allocation (min/avg/max) = 13.51 | 13.52 | 13.52 Mbytes
   Step          Temp          E_pair         E_mol          TotEng         Press          Volume    
         1   300           -107927.39      0             -107362.82     -24.030365      25218660     
Loop time of 5.0314e-05 on 12 procs for 0 steps with 14560 atoms

74.7% CPU use with 12 MPI tasks x 1 OpenMP threads

MPI task timing breakdown:
Section |  min time  |  avg time  |  max time  |%varavg| %total
---------------------------------------------------------------
Pair    | 0          | 0          | 0          |   0.0 |  0.00
Neigh   | 0          | 0          | 0          |   0.0 |  0.00
Comm    | 0          | 0          | 0          |   0.0 |  0.00
Output  | 0          | 0          | 0          |   0.0 |  0.00
Modify  | 0          | 0          | 0          |   0.0 |  0.00
Other   |            | 5.031e-05  |            |       |100.00

Nlocal:        1213.33 ave        1218 max        1204 min
Histogram: 4 0 0 0 0 0 0 0 0 8
Nghost:           1820 ave        1834 max        1806 min
Histogram: 4 0 0 0 0 4 0 0 0 4
Neighs:              0 ave           0 max           0 min
Histogram: 12 0 0 0 0 0 0 0 0 0

Total # of neighbors = 0
Ave neighs/atom = 0
Neighbor list builds = 0
Dangerous builds = 0
WARNING: Dump 2 includes no atom IDs and is not sorted by ID. This may complicate post-processing tasks or visualization (src/dump.cpp:221)
Setting up Verlet run ...
  Unit style    : metal
  Current step  : 0
  Time step     : 0.001
Per MPI rank memory allocation (min/avg/max) = 15.01 | 15.02 | 15.02 Mbytes
   Step         PotEng         KinEng         TotEng           Lx             Ly             Lz      
         0  -107927.39      564.56954     -107362.82      200            200            630.4665     
       100  -107599.44      275.73238     -107323.71      199.99421      199.99458      630.78173    
       200  -107611.81      341.29623     -107270.52      199.99237      199.99301      631.09697    
       300  -107564.41      357.65372     -107206.75      199.99827      199.99881      631.4122     
       400  -107536.8       399.84859     -107136.95      199.9912       199.99147      631.72743    
       500  -107496.48      433.49507     -107062.99      199.99302      199.99329      632.04267    
       600  -107460.58      473.09467     -106987.48      199.99684      199.99635      632.3579     
       700  -107419.46      505.32497     -106914.14      199.98836      199.98611      632.67313    
       800  -107387.52      539.68811     -106847.83      199.996        199.99211      632.98836    
       900  -107362.84      568.10262     -106794.73      199.99681      199.9904       633.3036     
      1000  -107343.35      579.60039     -106763.75      199.98785      199.97752      633.61883    
      1100  -107341.47      576.65689     -106764.82      199.99795      199.98364      633.93406    
      1200  -107358.1       570.51601     -106787.59      199.99566      199.97596      634.2493     
      1300  -107361.61      554.72134     -106806.88      199.9918       199.96597      634.56453    
      1400  -107357.63      551.29069     -106806.34      200.00255      199.97039      634.87976    
      1500  -107349.33      564.37529     -106784.95      199.99727      199.9574       635.195      
      1600  -107339.88      577.85094     -106762.03      199.99912      199.95057      635.51023    
      1700  -107328.34      573.58237     -106754.76      200.00995      199.95188      635.82546    
      1800  -107332.27      565.86904     -106766.4       200.0032       199.93421      636.1407     
      1900  -107335.36      555.17469     -106780.19      200.00826      199.92794      636.45593    
      2000  -107332.33      552.71492     -106779.62      200.0161       199.92394      636.77116    
      2100  -107330.8       568.53811     -106762.26      200.01124      199.90585      637.0864     
      2200  -107310.64      567.30676     -106743.33      200.0209       199.9019       637.40163    
      2300  -107303.22      567.73066     -106735.49      200.02588      199.89266      637.71686    
      2400  -107310.33      568.81813     -106741.52      200.02167      199.8741       638.0321     
      2500  -107310.09      559.4645      -106750.62      200.03222      199.87058      638.34733    
      2600  -107308.32      558.05816     -106750.26      200.03416      199.85793      638.66256    
      2700  -107302.63      565.61601     -106737.01      200.03133      199.84032      638.9778     
      2800  -107282.39      564.35782     -106718.03      200.04165      199.83603      639.29303    
      2900  -107280.69      576.32767     -106704.36      200.04024      199.82095      639.60826    
      3000  -107274.78      569.54811     -106705.23      200.03897      199.80682      639.9235     
      3100  -107277.55      564.74771     -106712.8       200.04761      199.80207      640.23873    
      3200  -107273.89      559.37673     -106714.51      200.04343      199.78533      640.55396    
      3300  -107267.14      562.74763     -106704.39      200.04257      199.7733       640.8692     
      3400  -107253.73      567.49366     -106686.23      200.04829      199.76899      641.18443    
      3500  -107240.88      570.43411     -106670.44      200.04149      199.75289      641.49966    
      3600  -107238.26      571.54209     -106666.72      200.04089      199.74283      641.8149     
      3700  -107228.66      558.13538     -106670.52      200.0428       199.73666      642.13013    
      3800  -107232.61      561.01012     -106671.6       200.0342       199.72152      642.44536    
      3900  -107222.03      558.57818     -106663.45      200.03292      199.71418      642.7606     
      4000  -107213.68      566.1741      -106647.51      200.03269      199.70816      643.07583    
      4100  -107202.13      570.4532      -106631.67      200.02221      199.69295      643.39106    
      4200  -107190.56      566.78435     -106623.77      200.02058      199.68748      643.7063     
      4300  -107182.35      557.62287     -106624.73      200.01662      199.68074      644.02153    
      4400  -107186.67      560.99286     -106625.68      200.004        199.666        644.33676    
      4500  -107179.21      559.66759     -106619.54      200.0021       199.66143      644.652      
      4600  -107165.29      561.45781     -106603.83      199.99504      199.65247      644.96723    
      4700  -107153.76      567.91333     -106585.85      199.98252      199.63873      645.28246    
      4800  -107145.09      570.26882     -106574.82      199.98047      199.63566      645.59769    
      4900  -107140.46      569.00486     -106571.46      199.97078      199.62459      645.91293    
      5000  -107133.99      561.69975     -106572.29      199.9592       199.61135      646.22816    
      5100  -107129.22      559.60212     -106569.62      199.95624      199.60684      646.54339    
      5200  -107117.31      561.30719     -106556         199.94384      199.59307      646.85863    
      5300  -107099.76      564.1692      -106535.59      199.93342      199.58044      647.17386    
      5400  -107086.6       568.16124     -106518.44      199.93041      199.57397      647.48909    
      5500  -107081.2       570.31978     -106510.88      199.91835      199.5576       647.80433    
      5600  -107074.93      563.72094     -106511.21      199.90978      199.54469      648.11956    
      5700  -107072.72      562.7329      -106509.99      199.90612      199.53648      648.43479    
      5800  -107057.42      557.45259     -106499.96      199.89416      199.51802      648.75003    
      5900  -107044.89      563.50382     -106481.39      199.88735      199.50376      649.06526    
      6000  -107023.86      562.38068     -106461.48      199.8834       199.49199      649.38049    
      6100  -107018.94      570.93047     -106448.01      199.87117      199.47088      649.69573    
      6200  -107013.25      568.50081     -106444.75      199.86644      199.45632      650.01096    
      6300  -107004.2       560.07696     -106444.12      199.86218      199.44115      650.32619    
      6400  -106997.73      561.45184     -106436.28      199.85036      199.41714      650.64143    
      6500  -106984.69      565.23737     -106419.45      199.8473       199.4016       650.95666    
      6600  -106970.16      571.14379     -106399.02      199.84304      199.38379      651.27189    
      6700  -106956.62      572.50985     -106384.11      199.832        199.35822      651.58713    
      6800  -106943.92      565.47957     -106378.44      199.82937      199.34034      651.90236    
      6900  -106937.27      561.97645     -106375.29      199.82372      199.31916      652.21759    
      7000  -106925.45      557.67293     -106367.78      199.81311      199.29259      652.53283    
      7100  -106912.37      561.29705     -106351.07      199.81022      199.27279      652.84806    
      7200  -106898.85      569.87412     -106328.98      199.80401      199.25017      653.16329    
      7300  -106876.52      564.60117     -106311.92      199.79391      199.22341      653.47853    
      7400  -106872.29      567.79356     -106304.49      199.78991      199.20255      653.79376    
      7500  -106868.11      566.91908     -106301.19      199.78223      199.17832      654.10899    
      7600  -106852.66      558.57539     -106294.08      199.77137      199.15089      654.42423    
      7700  -106839.85      561.26843     -106278.58      199.76642      199.12944      654.73946    
      7800  -106817.63      560.88534     -106256.75      199.75617      199.10375      655.05469    
      7900  -106805.76      571.08182     -106234.67      199.74367      199.07647      655.36993    
      8000  -106790.86      568.70364     -106222.16      199.73815      199.05643      655.68516    
      8100  -106782.53      565.42005     -106217.11      199.72553      199.03028      656.00039    
      8200  -106776.35      563.45469     -106212.89      199.71175      199.00405      656.31563    
      8300  -106763.93      563.40345     -106200.53      199.70292      198.98324      656.63086    
      8400  -106740.91      563.20782     -106177.7       199.68769      198.9569       656.94609    
      8500  -106726.72      571.23009     -106155.49      199.67366      198.93308      657.26133    
      8600  -106709.4       568.85181     -106140.54      199.66177      198.912        657.57656    
      8700  -106697.33      564.25605     -106133.08      199.64296      198.88474      657.89179    
      8800  -106687.05      561.26267     -106125.79      199.62701      198.86101      658.20702    
      8900  -106672.39      559.60819     -106112.78      199.61352      198.84084      658.52226    
      9000  -106657.01      563.47568     -106093.54      199.59321      198.81432      658.83749    
      9100  -106640.16      567.7076      -106072.45      199.57538      198.79052      659.15272    
      9200  -106619.47      564.60742     -106054.86      199.55975      198.76888      659.46796    
      9300  -106607.04      564.59794     -106042.44      199.53777      198.74192      659.78319    
      9400  -106597.64      564.84703     -106032.79      199.51931      198.71868      660.09842    
      9500  -106585.36      564.53726     -106020.83      199.50109      198.69535      660.41366    
      9600  -106566.27      562.88687     -106003.38      199.47807      198.66712      660.72889    
      9700  -106548.91      567.3535      -105981.56      199.45982      198.64311      661.04412    
      9800  -106532.18      571.73826     -105960.44      199.44102      198.61877      661.35936    
      9900  -106510.58      564.82398     -105945.76      199.41767      198.58957      661.67459    
     10000  -106497.54      561.42383     -105936.12      199.39966      198.56423      661.98982    
     10100  -106484.81      559.12105     -105925.69      199.37996      198.53706      662.30506    
     10200  -106467.82      560.22389     -105907.6       199.3561       198.50549      662.62029    
     10300  -106452.27      568.26871     -105884         199.33839      198.47947      662.93552    
     10400  -106431.08      571.11756     -105859.96      199.31822      198.44954      663.25076    
     10500  -106416.22      573.42472     -105842.79      199.29584      198.4158       663.56599    
     10600  -106396.6       563.1619      -105833.44      199.27902      198.38768      663.88122    
     10700  -106384.89      561.21592     -105823.68      199.25809      198.35488      664.19646    
     10800  -106367.46      560.47669     -105806.98      199.23675      198.31986      664.51169    
     10900  -106346.4       562.85561     -105783.55      199.22071      198.289        664.82692    
     11000  -106324.38      566.4876      -105757.89      199.19989      198.25253      665.14216    
     11100  -106313.08      574.45343     -105738.63      199.17995      198.21651      665.45739    
     11200  -106292.75      565.44808     -105727.3       199.16321      198.18287      665.77262    
     11300  -106277.94      561.42435     -105716.51      199.14223      198.14304      666.08786    
     11400  -106261.5       561.05335     -105700.44      199.12419      198.10618      666.40309    
     11500  -106239.86      563.46592     -105676.39      199.10733      198.07059      666.71832    
     11600  -106222.95      572.55919     -105650.39      199.08598      198.02973      667.03356    
     11700  -106197.13      566.49838     -105630.63      199.06874      197.9923       667.34879    
     11800  -106176.45      559.59184     -105616.86      199.05123      197.95403      667.66402    
     11900  -106164.32      560.34495     -105603.98      199.02916      197.9116       667.97926    
     12000  -106145.14      557.77241     -105587.36      199.01183      197.87438      668.29449    
     12100  -106124.05      560.25168     -105563.79      198.99278      197.83485      668.60972    
     12200  -106107.89      570.87935     -105537.01      198.97131      197.79241      668.92496    
     12300  -106077.41      561.70094     -105515.71      198.95399      197.75597      669.24019    
     12400  -106063.76      563.52265     -105500.24      198.9324       197.71553      669.55542    
     12500  -106047.07      560.60963     -105486.46      198.90989      197.67423      669.87066    
     12600  -106029.24      560.10842     -105469.13      198.89199      197.63765      670.18589    
     12700  -106002.06      555.97953     -105446.08      198.86843      197.59758      670.50112    
     12800  -105981.89      561.9959      -105419.89      198.84402      197.5581       670.81635    
     12900  -105966.33      569.80509     -105396.53      198.82395      197.52247      671.13159    
     13000  -105944.04      565.1256      -105378.91      198.79937      197.48293      671.44682    
     13100  -105929.44      561.1374      -105368.3       198.77455      197.44475      671.76205    
     13200  -105907.23      559.13269     -105348.1       198.75185      197.41001      672.07729    
     13300  -105886.69      564.32617     -105322.36      198.72545      197.37232      672.39252    
     13400  -105860.62      562.91281     -105297.71      198.70026      197.33583      672.70775    
     13500  -105844.01      567.33345     -105276.68      198.6768       197.30225      673.02299    
     13600  -105819.75      562.71257     -105257.04      198.64879      197.26582      673.33822    
     13700  -105805.08      568.09531     -105236.99      198.6217       197.23114      673.65345    
     13800  -105781.37      565.03382     -105216.34      198.59776      197.19876      673.96869    
     13900  -105755.79      561.9761      -105193.82      198.5693       197.16253      674.28392    
     14000  -105738.19      566.81301     -105171.38      198.54273      197.12934      674.59915    
     14100  -105714.13      564.13345     -105150         198.5177       197.09881      674.91439    
     14200  -105689.47      560.78218     -105128.69      198.48919      197.06356      675.22962    
     14300  -105669.5       561.8357      -105107.66      198.46367      197.03125      675.54485    
     14400  -105646.6       558.67116     -105087.93      198.43872      197.00056      675.86009    
     14500  -105622.7       555.12791     -105067.57      198.40945      196.96609      676.17532    
     14600  -105610.55      568.94058     -105041.61      198.38463      196.93533      676.49055    
     14700  -105582.24      570.15271     -105012.09      198.36042      196.90467      676.80579    
     14800  -105558.01      569.63153     -104988.38      198.33277      196.87032      677.12102    
     14900  -105534.38      561.36453     -104973.02      198.30893      196.84017      677.43625    
     15000  -105519.31      561.6454      -104957.67      198.28531      196.80949      677.75149    
     15100  -105492.16      560.20167     -104931.96      198.26006      196.77572      678.06672    
     15200  -105469.37      565.87942     -104903.5       198.23896      196.74566      678.38195    
     15300  -105442.44      566.47507     -104875.96      198.2166       196.71465      678.69719    
     15400  -105423.06      570.21272     -104852.85      198.19307      196.68119      679.01242    
     15500  -105401.03      567.82433     -104833.21      198.17429      196.65149      679.32765    
     15600  -105376.66      565.60182     -104811.05      198.15414      196.61995      679.64289    
     15700  -105351.31      564.04245     -104787.27      198.1333       196.58723      679.95812    
     15800  -105330.11      567.70922     -104762.4       198.11611      196.55779      680.27335    
     15900  -105300.2       565.54871     -104734.65      198.0978       196.5266       680.58859    
     16000  -105275.16      569.96703     -104705.2       198.07996      196.49493      680.90382    
     16100  -105246.86      564.41986     -104682.44      198.06471      196.46599      681.21905    
     16200  -105237.3       567.97175     -104669.33      198.04772      196.4353       681.53429    
     16300  -105206.45      559.64321     -104646.81      198.03072      196.40439      681.84952    
     16400  -105182.33      564.77561     -104617.55      198.01659      196.37588      682.16475    
     16500  -105152.18      565.34949     -104586.83      198.00135      196.34665      682.47999    
     16600  -105131.56      570.40322     -104561.16      197.98561      196.31719      682.79522    
     16700  -105105.93      566.14922     -104539.78      197.97237      196.29062      683.11045    
     16800  -105077.33      560.87718     -104516.45      197.9569       196.26209      683.42568    
     16900  -105056.39      564.38241     -104492.01      197.94254      196.23483      683.74092    
     17000  -105032.88      565.565       -104467.31      197.9301       196.21033      684.05615    
     17100  -105006.99      565.09774     -104441.89      197.91474      196.18369      684.37138    
     17200  -104978.83      563.10839     -104415.73      197.90005      196.15822      684.68662    
     17300  -104956.7       569.83992     -104386.86      197.8874       196.13525      685.00185    
     17400  -104929.06      572.47967     -104356.58      197.87266      196.11129      685.31708    
     17500  -104898.29      566.17516     -104332.12      197.85866      196.08939      685.63232    
     17600  -104877.15      561.18796     -104315.97      197.84531      196.06857      685.94755    
     17700  -104853.94      561.23149     -104292.71      197.83041      196.04694      686.26278    
     17800  -104825.98      562.86915     -104263.12      197.81664      196.02747      686.57802    
     17900  -104799.26      566.55574     -104232.71      197.80312      196.00882      686.89325    
     18000  -104772.3       567.32347     -104204.97      197.78777      195.98967      687.20848    
     18100  -104744.61      565.44831     -104179.17      197.77347      195.97181      687.52372    
     18200  -104719.74      565.73741     -104154         197.75929      195.95517      687.83895    
     18300  -104694.21      566.26426     -104127.94      197.74349      195.93776      688.15418    
     18400  -104660.19      562.93047     -104097.26      197.72977      195.92292      688.46942    
     18500  -104635.76      570.24784     -104065.51      197.71538      195.90814      688.78465    
     18600  -104608.32      568.30041     -104040.02      197.69928      195.89204      689.09988    
     18700  -104586.64      564.94533     -104021.7       197.68571      195.8793       689.41512    
     18800  -104554.47      556.98292     -103997.49      197.67088      195.86543      689.73035    
     18900  -104530.3       562.97985     -103967.32      197.65452      195.85031      690.04558    
     19000  -104499.49      563.6281      -103935.86      197.64163      195.8389       690.36082    
     19100  -104473.95      567.05443     -103906.9       197.62651      195.82568      690.67605    
     19200  -104445.52      565.53507     -103879.99      197.6111       195.81159      690.99128    
     19300  -104420.28      567.07118     -103853.21      197.59874      195.80063      691.30652    
     19400  -104388.47      562.92159     -103825.55      197.58479      195.78772      691.62175    
     19500  -104359.7       564.16599     -103795.53      197.57027      195.77405      691.93698    
     19600  -104333.08      568.38829     -103764.69      197.55897      195.76364      692.25222    
     19700  -104303.48      568.27806     -103735.2       197.54504      195.74988      692.56745    
     19800  -104271.82      562.72074     -103709.1       197.53173      195.73661      692.88268    
     19900  -104249.86      561.46527     -103688.39      197.52149      195.72601      693.19792    
     20000  -104221.35      557.84467     -103663.51      197.50856      195.71201      693.51315    
     20100  -104192.11      563.20489     -103628.9       197.49623      195.69838      693.82838    
     20200  -104158.88      565.32441     -103593.55      197.48721      195.68747      694.14362    
     20300  -104129.15      564.17963     -103564.97      197.47596      195.67328      694.45885    
     20400  -104106.35      565.90802     -103540.44      197.4651       195.65973      694.77408    
     20500  -104076.48      558.93243     -103517.54      197.45636      195.64791      695.08932    
     20600  -104048.12      559.39997     -103488.72      197.4452       195.63216      695.40455    
     20700  -104012.63      564.24172     -103448.39      197.43639      195.61855      695.71978    
     20800  -103986.47      569.10591     -103417.37      197.42914      195.60639      696.03501    
     20900  -103961.63      569.28695     -103392.35      197.41855      195.59011      696.35025    
     21000  -103931.37      562.26447     -103369.1       197.41101      195.5759       696.66548    
     21100  -103899.89      559.0839      -103340.81      197.40483      195.5626       696.98071    
     21200  -103866.74      563.52901     -103303.22      197.39531      195.54608      697.29595    
     21300  -103835.56      569.0395      -103266.52      197.38883      195.5324       697.61118    
     21400  -103803.8       562.99131     -103240.81      197.38303      195.51873      697.92641    
     21500  -103781.75      564.78697     -103216.96      197.37365      195.50182      698.24165    
     21600  -103745.06      554.85928     -103190.2       197.36763      195.48793      698.55688    
     21700  -103719.04      563.06957     -103155.97      197.3618       195.47427      698.87211    
     21800  -103688.56      572.5555      -103116         197.35321      195.45791      699.18735    
     21900  -103657.81      571.29012     -103086.52      197.34774      195.44438      699.50258    
     22000  -103626.56      564.23245     -103062.33      197.34235      195.43138      699.81781    
     22100  -103603.18      567.40409     -103035.78      197.33271      195.41529      700.13305    
     22200  -103568.59      563.09242     -103005.5       197.32659      195.40224      700.44828    
     22300  -103536.49      564.05653     -102972.44      197.3207       195.38993      700.76351    
     22400  -103508.61      568.25067     -102940.35      197.31012      195.37428      701.07875    
     22500  -103478.03      568.5882      -102909.45      197.30309      195.36199      701.39398    
     22600  -103444.38      566.22549     -102878.15      197.29636      195.35073      701.70921    
     22700  -103405.33      561.64595     -102843.69      197.28499      195.33561      702.02445    
     22800  -103374.93      566.87343     -102808.05      197.27806      195.32578      702.33968    
     22900  -103349.09      572.18767     -102776.9       197.26987      195.31543      702.65491    
     23000  -103323.8       569.57071     -102754.23      197.2569       195.30068      702.97015    
     23100  -103289.95      561.95133     -102728         197.24898      195.29148      703.28538    
     23200  -103256.77      562.31846     -102694.45      197.2402       195.28247      703.60061    
     23300  -103213.73      558.92329     -102654.81      197.22584      195.26841      703.91585    
     23400  -103188.78      567.77981     -102621         197.21708      195.26032      704.23108    
     23500  -103160.17      569.81892     -102590.35      197.20684      195.2513       704.54631    
     23600  -103129.29      567.91235     -102561.38      197.19229      195.23885      704.86155    
     23700  -103095.65      560.07383     -102535.58      197.18297      195.23193      705.17678    
     23800  -103070.28      561.6367      -102508.65      197.1711       195.22282      705.49201    
     23900  -103033.34      561.70081     -102471.64      197.15623      195.21103      705.80725    
     24000  -102995.66      565.42857     -102430.23      197.14632      195.2045       706.12248    
     24100  -102961.39      565.86411     -102395.53      197.13352      195.19501      706.43771    
     24200  -102930.77      565.8352      -102364.94      197.11847      195.18385      706.75295    
     24300  -102895.56      556.63149     -102338.93      197.10766      195.17683      707.06818    
     24400  -102869.36      558.67597     -102310.68      197.09394      195.16688      707.38341    
     24500  -102834.87      562.88929     -102271.98      197.07965      195.15656      707.69865    
     24600  -102796.12      565.44119     -102230.68      197.06898      195.14938      708.01388    
     24700  -102765.87      567.68537     -102198.18      197.05533      195.13889      708.32911    
     24800  -102734.2       563.55488     -102170.64      197.04122      195.12782      708.64434    
     24900  -102702.5       560.00518     -102142.5       197.03014      195.11935      708.95958    
     25000  -102667.42      559.63062     -102107.79      197.01667      195.10767      709.27481    
     25100  -102629.02      564.95089     -102064.07      197.00349      195.09606      709.59004    
     25200  -102594.06      565.06997     -102028.99      196.99303      195.08666      709.90528    
     25300  -102565.47      565.25736     -102000.21      196.98017      195.07427      710.22051    
     25400  -102537.8       563.90968     -101973.89      196.96728      195.06109      710.53574    
     25500  -102506.32      564.8934      -101941.43      196.95745      195.0502       710.85098    
     25600  -102461.71      565.06119     -101896.65      196.9454       195.03674      711.16621    
     25700  -102431.03      571.3042      -101859.72      196.93312      195.02248      711.48144    
     25800  -102398.29      567.12593     -101831.16      196.92408      195.01018      711.79668    
     25900  -102364.54      560.91586     -101803.62      196.91205      194.99446      712.11191    
     26000  -102335.21      564.57195     -101770.64      196.90032      194.97897      712.42714    
     26100  -102290.58      561.71638     -101728.86      196.89208      194.96614      712.74238    
     26200  -102257.41      568.49401     -101688.92      196.88064      194.94941      713.05761    
     26300  -102226.55      568.30162     -101658.25      196.86962      194.93269      713.37284    
     26400  -102190.92      561.08301     -101629.83      196.8616       194.9185       713.68808    
     26500  -102162.5       564.8551      -101597.65      196.84996      194.90088      714.00331    
     26600  -102127.52      566.33976     -101561.18      196.8403       194.88404      714.31854    
     26700  -102085.17      569.86439     -101515.31      196.83203      194.86887      714.63378    
     26800  -102048.61      569.14672     -101479.46      196.82046      194.8507       714.94901    
     26900  -102018.61      566.6137      -101451.99      196.81071      194.83395      715.26424    
     27000  -101986.66      564.1763      -101422.48      196.80146      194.81773      715.57948    
     27100  -101949.64      560.68251     -101388.96      196.78979      194.79965      715.89471    
     27200  -101911.07      561.14594     -101349.93      196.77965      194.78336      716.20994    
     27300  -101870.75      565.39576     -101305.35      196.76935      194.76705      716.52518    
     27400  -101844.63      571.38357     -101273.25      196.75804      194.74984      716.84041    
     27500  -101809.64      564.76037     -101244.88      196.74662      194.73346      717.15564    
     27600  -101775.3       562.40551     -101212.89      196.73443      194.71714      717.47088    
     27700  -101736.41      559.70002     -101176.71      196.72229      194.70055      717.78611    
     27800  -101700.48      562.65664     -101137.82      196.71023      194.68478      718.10134    
     27900  -101660.72      569.38377     -101091.34      196.69706      194.66937      718.41658    
     28000  -101624.12      570.84476     -101053.27      196.68376      194.65397      718.73181    
     28100  -101592.2       567.91878     -101024.28      196.66989      194.63819      719.04704    
     28200  -101559.48      563.46133     -100996.02      196.65606      194.62345      719.36228    
     28300  -101525.52      560.91818     -100964.6       196.64139      194.60858      719.67751    
     28400  -101488.22      558.52124     -100929.69      196.62607      194.59373      719.99274    
     28500  -101448.24      562.78208     -100885.46      196.61099      194.57925      720.30798    
     28600  -101410.52      566.20532     -100844.32      196.59516      194.56498      720.62321    
     28700  -101381.48      569.1399      -100812.34      196.57946      194.55116      720.93844    
     28800  -101345.14      562.88396     -100782.25      196.56293      194.5369       721.25367    
     28900  -101311.97      564.89772     -100747.07      196.54562      194.5227       721.56891    
     29000  -101274.59      573.29246     -100701.3       196.52913      194.50969      721.88414    
     29100  -101229.07      567.94647     -100661.13      196.51229      194.4961       722.19937    
     29200  -101197.09      567.16867     -100629.92      196.49417      194.48141      722.51461    
     29300  -101162.37      562.7165      -100599.65      196.47643      194.46775      722.82984    
     29400  -101129.71      565.06312     -100564.65      196.45941      194.45442      723.14507    
     29500  -101085.71      562.08994     -100523.62      196.44101      194.43983      723.46031    
     29600  -101045.39      568.58219     -100476.8       196.42294      194.42551      723.77554    
     29700  -101009.72      568.21206     -100441.51      196.40572      194.41183      724.09077    
     29800  -100976.22      565.2593      -100410.96      196.38716      194.3968       724.40601    
     29900  -100942.23      562.47153     -100379.76      196.36931      194.38186      724.72124    
     30000  -100906.41      561.85659     -100344.56      196.35249      194.36728      725.03647    
     30100  -100867.09      567.12271     -100299.96      196.33376      194.35076      725.35171    
     30200  -100825.98      568.78097     -100257.2       196.31671      194.33507      725.66694    
     30300  -100790.99      567.4977      -100223.49      196.29992      194.3196       725.98217    
     30400  -100754.17      562.06008     -100192.11      196.28165      194.30175      726.29741    
     30500  -100723.35      567.22142     -100156.13      196.26429      194.28439      726.61264    
     30600  -100680.76      570.11597     -100110.64      196.24816      194.2681       726.92787    
     30700  -100640.73      574.07866     -100066.65      196.23012      194.2494       727.24311    
     30800  -100599.97      565.28319     -100034.69      196.21346      194.23062      727.55834    
     30900  -100563.8       560.37693     -100003.43      196.19688      194.21195      727.87357    
     31000  -100530         562.01054     -99967.992      196.18022      194.19257      728.18881    
     31100  -100493.6       565.65871     -99927.941      196.16433      194.17358      728.50404    
     31200  -100445.25      565.75447     -99879.491      196.1472       194.15246      728.81927    
     31300  -100412.39      568.95122     -99843.439      196.13123      194.1319       729.13451    
     31400  -100378.66      565.87563     -99812.784      196.11589      194.11233      729.44974    
     31500  -100344.67      565.7991      -99778.875      196.09884      194.09005      729.76497    
     31600  -100304.1       563.4204      -99740.682      196.08313      194.06849      730.08021    
     31700  -100268.51      570.56669     -99697.94       196.06843      194.04817      730.39544    
     31800  -100218.47      569.10353     -99649.364      196.05194      194.02585      730.71067    
     31900  -100183.81      569.07362     -99614.737      196.03637      194.00364      731.02591    
     32000  -100148.33      564.28267     -99584.045      196.02123      193.98229      731.34114    
     32100  -100110.71      561.46573     -99549.243      196.00403      193.95976      731.65637    
     32200  -100073.22      562.31796     -99510.897      195.98779      193.93775      731.97161    
     32300  -100028.03      563.93555     -99464.099      195.97249      193.91591      732.28684    
     32400  -99990.677      569.81143     -99420.865      195.95559      193.8934       732.60207    
     32500  -99954.663      568.01119     -99386.652      195.93813      193.8714       732.91731    
     32600  -99917.054      563.33929     -99353.715      195.92231      193.85034      733.23254    
     32700  -99883.874      566.63654     -99317.237      195.90551      193.82792      733.54777    
     32800  -99845.487      567.3075      -99278.179      195.88724      193.80543      733.863      
     32900  -99798.346      561.3531      -99236.993      195.87002      193.78537      734.17824    
     33000  -99755.982      568.66584     -99187.316      195.85233      193.76428      734.49347    
     33100  -99714.35       567.07377     -99147.276      195.83279      193.74129      734.8087     
     33200  -99682.057      565.67078     -99116.386      195.81519      193.72144      735.12394    
     33300  -99643.635      560.20844     -99083.426      195.79647      193.70142      735.43917    
     33400  -99609.378      563.69923     -99045.679      195.77609      193.67941      735.7544     
     33500  -99568.042      564.22797     -99003.814      195.75791      193.65983      736.06964    
     33600  -99519.506      563.81469     -98955.692      195.73851      193.64065      736.38487    
     33700  -99487.606      571.06243     -98916.544      195.71756      193.62021      736.7001     
     33800  -99449.934      567.73697     -98882.197      195.69787      193.60147      737.01534    
     33900  -99406.872      560.369       -98846.503      195.67731      193.58231      737.33057    
     34000  -99372.465      564.33993     -98808.125      195.65502      193.56246      737.6458     
     34100  -99332.35       566.30808     -98766.042      195.63451      193.54412      737.96104    
     34200  -99289.476      570.57589     -98718.9        195.61372      193.52496      738.27627    
     34300  -99244.415      565.46246     -98678.953      195.59116      193.50532      738.5915     
     34400  -99211.21       563.41644     -98647.794      195.57035      193.48837      738.90674    
     34500  -99177.332      564.13048     -98613.201      195.54876      193.46962      739.22197    
     34600  -99137.653      564.73941     -98572.914      195.52583      193.44952      739.5372     
     34700  -99093.771      564.06784     -98529.703      195.50444      193.43221      739.85244    
     34800  -99054.582      567.54699     -98487.035      195.48231      193.41461      740.16767    
     34900  -99017.306      569.89557     -98447.41       195.45932      193.39433      740.4829     
     35000  -98968.854      559.90889     -98408.945      195.43805      193.37633      740.79814    
     35100  -98934.265      564.98137     -98369.284      195.41626      193.35858      741.11337    
     35200  -98891.411      562.72994     -98328.681      195.39299      193.33869      741.4286     
     35300  -98848.509      565.73114     -98282.777      195.37221      193.31999      741.74384    
     35400  -98805.801      568.23328     -98237.567      195.35154      193.30233      742.05907    
     35500  -98769.02       565.68734     -98203.333      195.32802      193.28205      742.3743     
     35600  -98737.13       566.30254     -98170.828      195.3063       193.26193      742.68954    
     35700  -98694.808      563.48113     -98131.327      195.28725      193.24374      743.00477    
     35800  -98651.18       562.49453     -98088.685      195.26404      193.22215      743.32       
     35900  -98607.82       565.00859     -98042.811      195.24154      193.20057      743.63524    
     36000  -98565.585      566.62022     -97998.964      195.2235       193.18212      743.95047    
     36100  -98527.014      565.03277     -97961.981      195.20224      193.16013      744.2657     
     36200  -98491.073      558.85661     -97932.217      195.17957      193.13694      744.58094    
     36300  -98451.014      558.25097     -97892.763      195.1618       193.11785      744.89617    
     36400  -98410.432      564.77251     -97845.659      195.14236      193.09605      745.2114     
     36500  -98363.098      562.15531     -97800.943      195.1203       193.07139      745.52664    
     36600  -98328.084      567.66471     -97760.419      195.10265      193.05067      745.84187    
     36700  -98292.421      569.64606     -97722.775      195.08449      193.02897      746.1571     
     36800  -98251.658      560.40333     -97691.255      195.0634       193.0034       746.47233    
     36900  -98211.194      559.15051     -97652.043      195.04618      192.98149      746.78757    
     37000  -98161.227      558.07754     -97603.149      195.02936      192.96015      747.1028     
     37100  -98121.041      562.61639     -97558.425      195.00926      192.93435      747.41803    
     37200  -98088.08       570.25791     -97517.822      194.99217      192.91148      747.73327    
     37300  -98039.987      562.20604     -97477.781      194.9761       192.88986      748.0485     
     37400  -98001.422      561.86328     -97439.559      194.95729      192.86487      748.36373    
     37500  -97967          565.34943     -97401.651      194.93967      192.84114      748.67897    
     37600  -97922.956      563.51434     -97359.442      194.92363      192.8192       748.9942     
     37700  -97879.389      568.09246     -97311.296      194.90498      192.79426      749.30943    
     37800  -97830.586      563.7446      -97266.841      194.88708      192.77051      749.62467    
     37900  -97791.624      563.03008     -97228.594      194.87151      192.74943      749.9399     
     38000  -97758.341      561.60737     -97196.733      194.853        192.72545      750.25513    
     38100  -97724.025      562.82713     -97161.198      194.83428      192.70148      750.57037    
     38200  -97675.294      558.89496     -97116.399      194.81835      192.68078      750.8856     
     38300  -97633.848      564.33771     -97069.51       194.80039      192.65866      751.20083    
     38400  -97585.363      561.75123     -97023.612      194.7815       192.6361       751.51607    
     38500  -97541.814      561.99078     -96979.824      194.76395      192.61501      751.8313     
     38600  -97507.198      567.48833     -96939.71       194.74578      192.59423      752.14653    
     38700  -97466.481      558.45941     -96908.022      194.7263       192.57288      752.46177    
     38800  -97432.167      562.38841     -96869.778      194.70767      192.55261      752.777      
     38900  -97385.572      564.5004      -96821.072      194.68942      192.53323      753.09223    
     39000  -97337.927      562.74207     -96775.185      194.67001      192.51344      753.40747    
     39100  -97301.663      567.97722     -96733.686      194.65046      192.49431      753.7227     
     39200  -97255.537      562.65376     -96692.883      194.63145      192.47585      754.03793    
     39300  -97215.961      566.37077     -96649.59       194.61108      192.45655      754.35317    
     39400  -97170.934      569.06817     -96601.866      194.59162      192.43883      754.6684     
     39500  -97124.577      565.09818     -96559.479      194.57286      192.42214      754.98363    
     39600  -97090.962      564.34235     -96526.619      194.55138      192.40359      755.29887    
     39700  -97042.573      552.84648     -96489.727      194.53058      192.38582      755.6141     
     39800  -97012.479      565.84898     -96446.63       194.5117       192.37022      755.92933    
     39900  -96965.321      564.8463      -96400.474      194.49042      192.35282      756.24457    
     40000  -96921          565.96431     -96355.035      194.46979      192.33601      756.5598     
     40100  -96877.061      564.44153     -96312.62       194.45032      192.3204       756.87503    
     40200  -96841.049      567.72946     -96273.32       194.4292       192.30355      757.19027    
     40300  -96795.295      559.60014     -96235.695      194.40852      192.28679      757.5055     
     40400  -96759.833      565.28005     -96194.553      194.38904      192.27185      757.82073    
     40500  -96713.226      564.83079     -96148.395      194.36906      192.25618      758.13597    
     40600  -96663.647      564.03919     -96099.607      194.34783      192.23845      758.4512     
     40700  -96625.917      568.70075     -96057.216      194.32833      192.22317      758.76643    
     40800  -96585.696      564.06486     -96021.631      194.30917      192.20791      759.08166    
     40900  -96547.581      559.32345     -95988.257      194.28824      192.18982      759.3969     
     41000  -96502.596      557.58581     -95945.01       194.26891      192.17362      759.71213    
     41100  -96462.056      564.16109     -95897.894      194.25088      192.15857      760.02736    
     41200  -96411.347      561.23681     -95850.11       194.23065      192.14063      760.3426     
     41300  -96371.454      566.15993     -95805.294      194.21162      192.12301      760.65783    
     41400  -96336.044      569.65756     -95766.386      194.19485      192.10777      760.97306    
     41500  -96290.785      555.92743     -95734.858      194.17578      192.08966      761.2883     
     41600  -96250.542      558.83632     -95691.706      194.15714      192.07129      761.60353    
     41700  -96205.62       561.81304     -95643.807      194.14129      192.05567      761.91876    
     41800  -96169.29       571.66948     -95597.621      194.12288      192.03703      762.234      
     41900  -96115.428      560.5783      -95554.85       194.10472      192.01763      762.54923    
     42000  -96079.12       566.06581     -95513.054      194.0897       192.00145      762.86446    
     42100  -96041.251      569.13146     -95472.12       194.0741       191.98391      763.1797     
     42200  -95994.953      560.51454     -95434.438      194.05736      191.9643       763.49493    
     42300  -95951.654      557.9834      -95393.67       194.04237      191.94634      763.81016    
     42400  -95907.343      562.46935     -95344.874      194.0278       191.92826      764.1254     
     42500  -95866.995      570.65971     -95296.335      194.01214      191.90864      764.44063    
     42600  -95823.346      568.44929     -95254.897      193.99831      191.88999      764.75586    
     42700  -95779.814      562.20499     -95217.609      193.98363      191.87114      765.0711     
     42800  -95739.685      557.57092     -95182.114      193.96897      191.85173      765.38633    
     42900  -95710.443      561.8854      -95148.557      193.95557      191.83276      765.70156    
     43000  -95658.407      557.93435     -95100.473      193.94155      191.81428      766.0168     
     43100  -95613.496      564.76794     -95048.728      193.92781      191.79537      766.33203    
     43200  -95564.801      563.17526     -95001.626      193.91464      191.77658      766.64726    
     43300  -95516.238      559.66866     -94956.569      193.90196      191.75856      766.9625     
     43400  -95479.054      562.44609     -94916.608      193.88777      191.73953      767.27773    
     43500  -95442.683      562.18294     -94880.5        193.874        191.71989      767.59296    
     43600  -95398.885      558.98458     -94839.901      193.86177      191.70237      767.9082     
     43700  -95353.323      566.14229     -94787.181      193.84811      191.68449      768.22343    
     43800  -95309.719      570.19984     -94739.52       193.83406      191.66575      768.53866    
     43900  -95270.221      570.53947     -94699.682      193.82162      191.64861      768.8539     
     44000  -95222.805      559.53406     -94663.271      193.80813      191.63187      769.16913    
     44100  -95182.719      560.76508     -94621.954      193.79362      191.61386      769.48436    
     44200  -95136.873      563.91423     -94572.958      193.78079      191.59722      769.7996     
     44300  -95093.492      573.19965     -94520.293      193.76768      191.58197      770.11483    
     44400  -95041.866      562.1114      -94479.755      193.7526       191.56518      770.43006    
     44500  -95013.822      570.40108     -94443.421      193.73789      191.54885      770.7453     
     44600  -94969.479      564.23093     -94405.248      193.72411      191.53399      771.06053    
     44700  -94923.458      561.57909     -94361.879      193.70887      191.51905      771.37576    
     44800  -94879.706      568.74042     -94310.966      193.69346      191.50405      771.69099    
     44900  -94834.987      572.40827     -94262.578      193.67975      191.49066      772.00623    
     45000  -94794.18       570.68659     -94223.494      193.66395      191.47631      772.32146    
     45100  -94747.984      563.79892     -94184.185      193.64696      191.4618       772.63669    
     45200  -94706.686      564.99344     -94141.692      193.63286      191.44941      772.95193    
     45300  -94665.251      565.76641     -94099.485      193.61721      191.43666      773.26716    
     45400  -94621.193      563.09284     -94058.1        193.59933      191.42274      773.58239    
     45500  -94577.945      561.74494     -94016.2        193.58398      191.41058      773.89763    
     45600  -94538.098      567.2079      -93970.89       193.56807      191.39838      774.21286    
     45700  -94488.352      567.57628     -93920.775      193.55014      191.38555      774.52809    
     45800  -94438.495      565.04553     -93873.45       193.53317      191.37316      774.84333    
     45900  -94399.78       565.37529     -93834.405      193.51791      191.36144      775.15856    
     46000  -94364.458      564.44439     -93800.013      193.50013      191.34954      775.47379    
     46100  -94315.119      559.12246     -93755.997      193.48238      191.3373       775.78903    
     46200  -94274.518      567.25918     -93707.259      193.4662       191.32529      776.10426    
     46300  -94224.903      565.93451     -93658.968      193.4486       191.31302      776.41949    
     46400  -94187.307      571.7646      -93615.543      193.43129      191.30164      776.73473    
     46500  -94143.194      559.25177     -93583.942      193.41498      191.28941      777.04996    
     46600  -94097.463      557.18309     -93540.28       193.39741      191.27643      777.36519    
     46700  -94054.613      565.04803     -93489.565      193.38107      191.26518      777.68043    
     46800  -94008.201      566.58122     -93441.62       193.36503      191.25276      777.99566    
     46900  -93969.557      569.74434     -93399.812      193.34802      191.23924      778.31089    
     47000  -93926.759      560.75128     -93366.008      193.33271      191.22754      778.62613    
     47100  -93887.23       562.78099     -93324.449      193.31772      191.21533      778.94136    
     47200  -93838.305      561.75201     -93276.553      193.30112      191.20079      779.25659    
     47300  -93793.829      566.65471     -93227.174      193.28632      191.18786      779.57183    
     47400  -93744.69       563.69175     -93180.998      193.27202      191.17524      779.88706    
     47500  -93703.106      563.24314     -93139.863      193.25676      191.16067      780.20229    
     47600  -93664.014      556.10915     -93107.905      193.24247      191.14657      780.51753    
     47700  -93624.363      561.98361     -93062.379      193.22851      191.13259      780.83276    
     47800  -93573.399      562.34278     -93011.056      193.21497      191.11814      781.14799    
     47900  -93527.949      564.82103     -92963.128      193.20191      191.10371      781.46323    
     48000  -93484.095      563.73357     -92920.362      193.18843      191.08879      781.77846    
     48100  -93442.592      557.14033     -92885.451      193.17482      191.0734       782.09369    
     48200  -93403.167      559.86877     -92843.298      193.16305      191.05896      782.40893    
     48300  -93356.791      562.02145     -92794.769      193.15055      191.04323      782.72416    
     48400  -93311.722      565.14122     -92746.581      193.13727      191.02717      783.03939    
     48500  -93266.161      564.94531     -92701.216      193.12587      191.01178      783.35463    
     48600  -93225.427      564.20219     -92661.225      193.115        190.99663      783.66986    
     48700  -93184.65       557.98973     -92626.66       193.103        190.98097      783.98509    
     48800  -93140.552      561.22935     -92579.322      193.09115      190.96465      784.30032    
     48900  -93091.753      565.26688     -92526.486      193.08038      190.94863      784.61556    
     49000  -93043.775      563.99389     -92479.781      193.06926      190.93382      784.93079    
     49100  -92998.358      560.45026     -92437.908      193.05749      190.91739      785.24602    
     49200  -92961.445      561.08679     -92400.358      193.04654      190.90086      785.56126    
     49300  -92923.198      565.24955     -92357.949      193.03524      190.88516      785.87649    
     49400  -92876.432      564.83646     -92311.596      193.02422      190.86987      786.19172    
     49500  -92828.418      564.70955     -92263.709      193.0131       190.85351      786.50696    
     49600  -92784.634      569.55863     -92215.075      193.00123      190.83734      786.82219    
     49700  -92735.26       564.89399     -92170.366      192.98999      190.82261      787.13742    
     49800  -92696.38       561.7019      -92134.678      192.97868      190.80688      787.45266    
     49900  -92654.801      562.1759      -92092.625      192.96671      190.79105      787.76789    
     50000  -92605.036      561.229       -92043.807      192.95473      190.77642      788.08312    
     50100  -92562.386      569.01233     -91993.374      192.94336      190.76182      788.39836    
     50200  -92518.031      569.13299     -91948.898      192.93175      190.74677      788.71359    
     50300  -92473.94       558.64594     -91915.294      192.91844      190.73179      789.02882    
     50400  -92431.521      561.10357     -91870.417      192.90672      190.71806      789.34406    
     50500  -92380.324      560.22631     -91820.098      192.89423      190.70372      789.65929    
     50600  -92334.271      565.08584     -91769.186      192.87998      190.68842      789.97452    
     50700  -92295.455      571.81572     -91723.639      192.86724      190.67533      790.28976    
     50800  -92250.193      560.45687     -91689.736      192.85387      190.66181      790.60499    
     50900  -92208.913      562.65319     -91646.26       192.83954      190.64736      790.92022    
     51000  -92160.045      561.56002     -91598.484      192.82572      190.63475      791.23546    
     51100  -92118.877      569.11569     -91549.762      192.81077      190.62083      791.55069    
     51200  -92071.989      570.61391     -91501.376      192.79567      190.60715      791.86592    
     51300  -92029.91       567.94287     -91461.967      192.78158      190.59519      792.18116    
     51400  -91988.597      564.72464     -91423.872      192.76627      190.58251      792.49639    
     51500  -91939.861      560.48332     -91379.378      192.75008      190.56872      792.81162    
     51600  -91899.37       567.87163     -91331.499      192.73419      190.55624      793.12686    
     51700  -91852.847      572.61558     -91280.231      192.71899      190.54451      793.44209    
     51800  -91804.589      573.38304     -91231.206      192.70207      190.53134      793.75732    
     51900  -91761.561      567.33314     -91194.228      192.68574      190.51866      794.07256    
     52000  -91718.339      563.62877     -91154.711      192.67082      190.50747      794.38779    
     52100  -91672.859      561.91779     -91110.942      192.65431      190.49479      794.70302    
     52200  -91629.093      563.80203     -91065.291      192.63726      190.48198      795.01826    
     52300  -91583.844      564.68995     -91019.154      192.62174      190.47057      795.33349    
     52400  -91544.923      570.44263     -90974.481      192.60588      190.45882      795.64872    
     52500  -91494.388      560.65135     -90933.737      192.58865      190.44614      795.96395    
     52600  -91450.408      560.03336     -90890.375      192.57213      190.43373      796.27919    
     52700  -91406.836      565.42898     -90841.407      192.55653      190.42201      796.59442    
     52800  -91359.604      573.04135     -90786.563      192.53966      190.40937      796.90965    
     52900  -91309.575      569.94658     -90739.629      192.52239      190.39591      797.22489    
     53000  -91269.522      566.0449      -90703.477      192.50735      190.38424      797.54012    
     53100  -91224.281      563.84122     -90660.44       192.49213      190.37207      797.85535    
     53200  -91186.245      569.04189     -90617.203      192.47513      190.35839      798.17059    
     53300  -91140.591      565.17635     -90575.415      192.4597       190.34518      798.48582    
     53400  -91092.834      560.81721     -90532.016      192.44487      190.3326       798.80105    
     53500  -91052.811      567.9416      -90484.869      192.42852      190.31869      799.11629    
     53600  -91001.744      566.59279     -90435.151      192.41359      190.30506      799.43152    
     53700  -90947.533      560.41254     -90387.12       192.39904      190.29101      799.74675    
     53800  -90910.094      565.32376     -90344.771      192.38331      190.27656      800.06199    
     53900  -90866.826      562.41773     -90304.408      192.36941      190.26297      800.37722    
     54000  -90824.46       565.15763     -90259.302      192.35565      190.24825      800.69245    
     54100  -90779.79       567.68006     -90212.11       192.34043      190.2333       801.00769    
     54200  -90723.174      556.66746     -90166.506      192.32635      190.21858      801.32292    
     54300  -90689.663      564.18425     -90125.479      192.3133       190.20367      801.63815    
     54400  -90643.747      562.31759     -90081.429      192.29927      190.18862      801.95339    
     54500  -90602.705      569.47585     -90033.229      192.28525      190.17322      802.26862    
     54600  -90547.467      566.80568     -89980.661      192.27232      190.1577       802.58385    
     54700  -90494.762      565.2921      -89929.47       192.25884      190.14184      802.89909    
     54800  -90454.055      563.37855     -89890.676      192.24505      190.12561      803.21432    
     54900  -90417.822      568.47955     -89849.342      192.23246      190.1099       803.52955    
     55000  -90369.52       563.75274     -89805.767      192.21936      190.09359      803.84479    
     55100  -90321.65       559.68101     -89761.969      192.2064       190.07747      804.16002    
     55200  -90280.414      562.45757     -89717.957      192.19384      190.0613       804.47525    
     55300  -90237.545      561.30632     -89676.239      192.18042      190.04381      804.79049    
     55400  -90191.396      559.94133     -89631.454      192.16823      190.02816      805.10572    
     55500  -90138.161      560.918       -89577.243      192.15532      190.01105      805.42095    
     55600  -90088.011      566.26665     -89521.744      192.14139      189.99262      805.73619    
     55700  -90042.451      565.02994     -89477.421      192.12871      189.97633      806.05142    
     55800  -90004.166      568.03135     -89436.134      192.11619      189.96015      806.36665    
     55900  -89954.02       562.1207      -89391.9        192.1027       189.94202      806.68189    
     56000  -89909.904      561.80005     -89348.104      192.08853      189.92466      806.99712    
     56100  -89870.064      566.62525     -89303.439      192.07545      189.90845      807.31235    
     56200  -89822.552      564.02217     -89258.53       192.06204      189.89173      807.62759    
     56300  -89781.302      561.71876     -89219.584      192.04712      189.87394      807.94282    
     56400  -89738.289      564.32006     -89173.969      192.03301      189.8574       808.25805    
     56500  -89686.459      564.03522     -89122.424      192.01924      189.84115      808.57328    
     56600  -89632.879      561.53267     -89071.346      192.00284      189.82278      808.88852    
     56700  -89593.257      567.89415     -89025.363      191.98812      189.80648      809.20375    
     56800  -89549.484      563.69841     -88985.786      191.97477      189.79198      809.51898    
     56900  -89501.545      563.10312     -88938.442      191.95808      189.77413      809.83422    
     57000  -89458.136      567.29597     -88890.84       191.94267      189.75788      810.14945    
     57100  -89416.011      569.60596     -88846.405      191.92761      189.7427       810.46468    
     57200  -89370.767      564.8688      -88805.898      191.911        189.72634      810.77992    
     57300  -89317.849      560.61476     -88757.234      191.895        189.71068      811.09515    
     57400  -89270.259      564.29416     -88705.965      191.87864      189.69562      811.41038    
     57500  -89223.541      567.38104     -88656.16       191.86128      189.67929      811.72562    
     57600  -89182.116      564.04001     -88618.076      191.84497      189.66416      812.04085    
     57700  -89133.317      561.60837     -88571.708      191.82853      189.64946      812.35608    
     57800  -89090.457      567.27755     -88523.179      191.81037      189.63384      812.67132    
     57900  -89039.758      563.91251     -88475.846      191.79274      189.61822      812.98655    
     58000  -88998.954      565.19762     -88433.757      191.77668      189.60474      813.30178    
     58100  -88952.061      564.28651     -88387.774      191.75846      189.58983      813.61702    
     58200  -88903.53       566.14196     -88337.388      191.74008      189.57437      813.93225    
     58300  -88858.437      570.63364     -88287.804      191.72341      189.56097      814.24748    
     58400  -88811.727      562.48402     -88249.243      191.70458      189.54534      814.56272    
     58500  -88765.592      564.44897     -88201.143      191.68596      189.53018      814.87795    
     58600  -88720.74       571.9184      -88148.822      191.67027      189.51794      815.19318    
     58700  -88667.761      568.30493     -88099.457      191.65134      189.50224      815.50842    
     58800  -88624.128      565.86031     -88058.268      191.632        189.48576      815.82365    
     58900  -88570.993      559.43045     -88011.562      191.61633      189.47353      816.13888    
     59000  -88530.997      568.46538     -87962.532      191.59735      189.45819      816.45412    
     59100  -88483.971      567.79015     -87916.181      191.57767      189.44125      816.76935    
     59200  -88435.933      562.83271     -87873.1        191.56189      189.42861      817.08458    
     59300  -88394.485      566.99715     -87827.488      191.54376      189.41348      817.39982    
     59400  -88340.956      566.53928     -87774.417      191.52397      189.39654      817.71505    
     59500  -88293.278      570.92737     -87722.35       191.5079       189.38277      818.03028    
     59600  -88247.82       569.83684     -87677.983      191.49023      189.36697      818.34552    
     59700  -88198.857      566.71339     -87632.144      191.4712       189.35017      818.66075    
     59800  -88148.366      564.58668     -87583.779      191.45546      189.33641      818.97598    
     59900  -88106.781      569.60992     -87537.171      191.43803      189.31966      819.29122    
     60000  -88061.329      571.24642     -87490.083      191.41958      189.30229      819.60645    
     60100  -88007.608      567.07839     -87440.53       191.40391      189.28778      819.92168    
     60200  -87957.384      567.43562     -87389.948      191.38605      189.26977      820.23692    
     60300  -87905.903      564.68518     -87341.218      191.36929      189.25253      820.55215    
     60400  -87861.755      566.77543     -87294.979      191.35377      189.23732      820.86738    
     60500  -87814.844      568.12464     -87246.719      191.3366       189.21962      821.18261    
     60600  -87759.481      561.72999     -87197.751      191.31939      189.20114      821.49785    
     60700  -87712.058      561.6109      -87150.447      191.30426      189.18474      821.81308    
     60800  -87668.68       565.88664     -87102.794      191.28696      189.16664      822.12831    
     60900  -87619.098      566.27542     -87052.822      191.27054      189.14863      822.44355    
     61000  -87569.728      565.09124     -87004.637      191.25474      189.13079      822.75878    
     61100  -87526.557      569.81047     -86956.747      191.2377       189.11202      823.07401    
     61200  -87476.427      568.56647     -86907.861      191.22166      189.09404      823.38925    
     61300  -87419.834      561.10917     -86858.725      191.20584      189.0761       823.70448    
     61400  -87378.382      568.11233     -86810.27       191.18917      189.05707      824.01971    
     61500  -87335.835      574.37731     -86761.457      191.17247      189.0379       824.33495    
     61600  -87276.84       564.58733     -86712.252      191.15675      189.01959      824.65018    
     61700  -87229.82       566.99584     -86662.824      191.14135      189.00162      824.96541    
     61800  -87181.149      567.44646     -86613.703      191.12503      188.9826       825.28065    
     61900  -87134.605      569.98132     -86564.623      191.10816      188.96326      825.59588    
     62000  -87080.93       566.33593     -86514.594      191.09263      188.94502      825.91111    
     62100  -87031.199      565.45751     -86465.741      191.07597      188.92577      826.22635    
     62200  -86985.939      571.13857     -86414.8        191.05962      188.90669      826.54158    
     62300  -86931.631      566.5529      -86365.078      191.04338      188.88827      826.85681    
     62400  -86879.265      564.50103     -86314.764      191.02716      188.8697       827.17205    
     62500  -86837.974      574.13466     -86263.839      191.01048      188.85065      827.48728    
     62600  -86778.804      565.83022     -86212.974      190.99429      188.83247      827.80251    
     62700  -86726.567      563.70499     -86162.862      190.97698      188.81324      828.11775    
     62800  -86679.294      566.32416     -86112.97       190.96131      188.79557      828.43298    
     62900  -86623.969      561.15923     -86062.81       190.94429      188.77702      828.74821    
     63000  -86576.697      565.04513     -86011.652      190.92633      188.75791      829.06345    
     63100  -86528.358      568.12413     -85960.234      190.91111      188.74132      829.37868    
     63200  -86480.325      571.01249     -85909.313      190.89381      188.72288      829.69391    
     63300  -86422.989      565.99308     -85856.996      190.87583      188.70412      830.00915    
     63400  -86371.447      566.21546     -85805.232      190.85948      188.68739      830.32438    
     63500  -86320.37       567.1007      -85753.27       190.84225      188.66967      830.63961    
     63600  -86269.124      568.2018      -85700.923      190.8251       188.65194      830.95485    
     63700  -86218.732      569.8405      -85648.892      190.80761      188.63494      831.27008    
     63800  -86167.38       570.48274     -85596.897      190.78945      188.61724      831.58531    
     63900  -86118.255      573.72541     -85544.53       190.77249      188.60045      831.90055    
     64000  -86057.046      564.56887     -85492.477      190.75516      188.58362      832.21578    
     64100  -86012.771      573.78363     -85438.988      190.73708      188.5669       832.53101    
     64200  -85952.369      566.55594     -85385.813      190.71903      188.54989      832.84625    
     64300  -85896.99       564.40965     -85332.581      190.70162      188.53364      833.16148    
     64400  -85849.349      570.11085     -85279.238      190.6836       188.51687      833.47671    
     64500  -85795.521      570.18642     -85225.334      190.66544      188.50035      833.79194    
     64600  -85742.713      570.71014     -85172.003      190.64833      188.48489      834.10718    
     64700  -85690.746      572.42263     -85118.323      190.62985      188.468        834.42241    
     64800  -85632.974      569.42776     -85063.547      190.61164      188.45179      834.73764    
     64900  -85575.261      565.8116      -85009.45       190.59445      188.43688      835.05288    
     65000  -85525.456      570.9828      -84954.473      190.57532      188.41983      835.36811    
     65100  -85464.366      564.77319     -84899.593      190.55685      188.40336      835.68334    
     65200  -85406.904      562.73555     -84844.168      190.53903      188.38813      835.99858    
     65300  -85360.002      571.59637     -84788.406      190.52024      188.37234      836.31381    
     65400  -85298.531      566.22546     -84732.306      190.50227      188.35668      836.62904    
     65500  -85245.929      569.35557     -84676.574      190.48368      188.34044      836.94428    
     65600  -85189.911      569.17666     -84620.734      190.46535      188.32473      837.25951    
     65700  -85132.961      568.80799     -84564.153      190.44752      188.30953      837.57474    
     65800  -85072.217      565.13625     -84507.08       190.42873      188.29341      837.88998    
     65900  -85020.005      568.14071     -84451.865      190.41115      188.27809      838.20521    
     66000  -84966.879      570.8558      -84396.024      190.39357      188.26254      838.52044    
     66100  -84903.973      565.13742     -84338.836      190.37525      188.24658      838.83568    
     66200  -84849.854      568.00325     -84281.85       190.35735      188.23095      839.15091    
     66300  -84788.467      565.10568     -84223.362      190.33991      188.21535      839.46614    
     66400  -84734.267      568.38413     -84165.883      190.32248      188.19962      839.78138    
     66500  -84675.06       567.02695     -84108.033      190.30493      188.18331      840.09661    
     66600  -84619.083      569.52148     -84049.562      190.28812      188.16798      840.41184    
     66700  -84559.009      567.74475     -83991.264      190.27094      188.1524       840.72708    
     66800  -84499.38       567.95004     -83931.43       190.25347      188.13584      841.04231    
     66900  -84444.724      572.18533     -83872.538      190.23761      188.12048      841.35754    
     67000  -84384.659      571.01371     -83813.645      190.22049      188.10417      841.67278    
     67100  -84321.16       566.68251     -83754.478      190.20401      188.08833      841.98801    
     67200  -84264.506      570.22399     -83694.282      190.1888       188.0733       842.30324    
     67300  -84202.597      568.21963     -83634.378      190.17142      188.05563      842.61848    
     67400  -84140.673      565.60936     -83575.063      190.15648      188.0406       842.93371    
     67500  -84082.185      567.46877     -83514.716      190.14157      188.0252       843.24894    
     67600  -84018.584      565.38825     -83453.195      190.12475      188.00749      843.56418    
     67700  -83960.286      568.49259     -83391.793      190.11091      187.99242      843.87941    
     67800  -83896.468      565.78468     -83330.684      190.09627      187.97699      844.19464    
     67900  -83838.617      569.5969      -83269.02       190.07988      187.95963      844.50988    
     68000  -83775.916      567.55038     -83208.365      190.06661      187.94474      844.82511    
     68100  -83713.856      566.65504     -83147.201      190.0523       187.92882      845.14034    
     68200  -83649.407      564.50985     -83084.897      190.03679      187.9117       845.45558    
     68300  -83594.902      573.76696     -83021.135      190.02402      187.89708      845.77081    
     68400  -83523.838      565.6754      -82958.163      190.00943      187.88085      846.08604    
     68500  -83468.287      574.34249     -82893.944      189.99519      187.86465      846.40127    
     68600  -83401.818      571.74923     -82830.069      189.98306      187.85031      846.71651    
     68700  -83338.732      572.35332     -82766.379      189.96839      187.83351      847.03174    
     68800  -83276.792      576.4757      -82700.317      189.95469      187.81801      847.34697    
     68900  -83205.134      569.74648     -82635.388      189.9434       187.80417      847.66221    
     69000  -83144.29       572.54185     -82571.748      189.92838      187.78714      847.97744    
     69100  -83081.691      574.57496     -82507.116      189.91568      187.77255      848.29267    
     69200  -83011.648      568.2907      -82443.357      189.90405      187.75892      848.60791    
     69300  -82950.457      571.78553     -82378.671      189.88932      187.74214      848.92314    
     69400  -82886.697      574.7002      -82311.996      189.87773      187.72849      849.23837    
     69500  -82819.111      572.47739     -82246.633      189.86495      187.71429      849.55361    
     69600  -82755.567      576.34768     -82179.219      189.8503       187.69837      849.86884    
     69700  -82685.068      570.94946     -82114.119      189.8393       187.68564      850.18407    
     69800  -82619.076      572.98613     -82046.09       189.82673      187.6714       850.49931    
     69900  -82549.745      572.27501     -81977.47       189.81199      187.65576      850.81454    
     70000  -82484.066      574.60948     -81909.457      189.80145      187.64432      851.12977    
     70100  -82419.323      575.47787     -81843.845      189.78823      187.62999      851.44501    
     70200  -82348.032      574.08011     -81773.952      189.77425      187.61484      851.76024    
     70300  -82274.326      569.95404     -81704.372      189.76389      187.60363      852.07547    
     70400  -82213.136      577.28512     -81635.851      189.75061      187.59004      852.39071    
     70500  -82140.908      574.35501     -81566.553      189.73697      187.57616      852.70594    
     70600  -82074.744      577.78323     -81496.961      189.72607      187.56466      853.02117    
     70700  -82004.792      578.04626     -81426.745      189.71288      187.55104      853.33641    
     70800  -81937.346      578.77991     -81358.566      189.70014      187.53845      853.65164    
     70900  -81870.836      581.57511     -81289.261      189.68871      187.52735      853.96687    
     71000  -81799.636      581.10494     -81218.531      189.67535      187.51397      854.28211    
     71100  -81722.211      573.93718     -81148.273      189.66335      187.50218      854.59734    
     71200  -81654.683      577.82001     -81076.863      189.65219      187.49199      854.91257    
     71300  -81587.898      582.37774     -81005.52       189.63868      187.47914      855.22781    
     71400  -81511.946      578.35507     -80933.591      189.62717      187.46788      855.54304    
     71500  -81448.77       583.56036     -80865.21       189.61605      187.45784      855.85827    
     71600  -81372.059      581.69301     -80790.366      189.60243      187.44553      856.17351    
     71700  -81294.62       577.25068     -80717.37       189.59135      187.4351       856.48874    
     71800  -81230.078      584.70765     -80645.371      189.58025      187.42456      856.80397    
     71900  -81159.775      587.39893     -80572.376      189.56718      187.41286      857.11921    
     72000  -81077.935      579.45644     -80498.478      189.55642      187.40352      857.43444    
     72100  -81007.571      584.02564     -80423.545      189.54495      187.39296      857.74967    
     72200  -80936.921      590.10552     -80346.815      189.53279      187.38161      858.06491    
     72300  -80856.604      584.69606     -80271.908      189.5218       187.37222      858.38014    
     72400  -80785.044      587.83753     -80197.207      189.51052      187.36253      858.69537    
     72500  -80710.837      590.41128     -80120.426      189.4985       187.35163      859.0106     
     72600  -80638.818      591.42535     -80047.393      189.48788      187.34228      859.32584    
[...]
     81600  -100077.44      729.99519     -99347.441      190.06231      187.94814      887.69683    
     81700  -100341.48      725.64558     -99615.834      190.08677      187.97227      888.01206    
     81800  -100602.53      721.88368     -99880.645      190.11066      187.99585      888.3273     
     81900  -100860.39      718.27446     -100142.11      190.13401      188.01893      888.64253    
     82000  -101115.15      714.7093      -100400.44      190.15692      188.04156      888.95776    
     82100  -101367.38      711.5334      -100655.85      190.17933      188.0637       889.273      
     82200  -101616.77      708.31724     -100908.46      190.20122      188.08538      889.58823    
     82300  -101863.92      705.47493     -101158.45      190.22267      188.10661      889.90346    
     82400  -102108.72      702.72064     -101406         190.24387      188.12761      890.2187     
     82500  -102351.51      700.22418     -101651.28      190.26468      188.14823      890.53393    
     82600  -102592.12      697.73952     -101894.38      190.28503      188.16839      890.84916    
     82700  -102830.61      695.29489     -102135.32      190.30505      188.18821      891.1644     
     82800  -103066.97      692.8673      -102374.11      190.32464      188.20764      891.47963    
     82900  -103301.35      690.54751     -102610.8       190.34389      188.22672      891.79486    
     83000  -103533.78      688.30418     -102845.48      190.36285      188.24552      892.1101     
     83100  -103764.4       686.16481     -103078.24      190.38143      188.26396      892.42533    
     83200  -103992.02      682.87693     -103309.14      190.39969      188.28209      892.74056    
     83300  -104211.62      675.88187     -103535.74      190.41786      188.30012      893.0558     
     83400  -104424.09      668.77685     -103755.31      190.43611      188.31821      893.37103    
     83500  -104630.32      662.58236     -103967.73      190.45411      188.33606      893.68626    
     83600  -104829.23      655.98333     -104173.25      190.47201      188.35381      894.0015     
     83700  -105021.51      649.4983      -104372.01      190.48998      188.37162      894.31673    
     83800  -105207.13      643.06726     -104564.06      190.5078       188.38929      894.63196    
     83900  -105386.15      636.77072     -104749.38      190.52559      188.40693      894.9472     
     84000  -105558.64      630.70745     -104927.93      190.54349      188.42467      895.26243    
     84100  -105724.46      624.82004     -105099.64      190.56131      188.44234      895.57766    
     84200  -105883.23      618.81801     -105264.42      190.57921      188.46007      895.8929     
     84300  -106035.26      613.07851     -105422.18      190.59725      188.47795      896.20813    
     84400  -106180.18      607.37427     -105572.81      190.61531      188.49583      896.52336    
     84500  -106318         601.82321     -105716.18      190.63353      188.51388      896.83859    
     84600  -106448.56      596.43168     -105852.12      190.65194      188.53212      897.15383    
     84700  -106571.68      591.2093      -105980.47      190.67045      188.55045      897.46906    
     84800  -106687.25      586.24042     -106101.01      190.68923      188.56905      897.78429    
     84900  -106794.97      581.50831     -106213.47      190.70826      188.5879       898.09953    
     85000  -106894.64      577.06882     -106317.57      190.72751      188.60697      898.41476    
     85100  -106985.96      572.9548      -106413.01      190.74715      188.62642      898.72999    
     85200  -107068.75      569.36448     -106499.39      190.76705      188.64609      899.04523    
     85300  -107143.26      566.72756     -106576.53      190.78685      188.66567      899.36046    
     85400  -107209.8       564.92059     -106644.88      190.8068       188.68541      899.67569    
     85500  -107268.18      563.23153     -106704.94      190.82683      188.70518      899.99093    
     85600  -107318.35      561.73829     -106756.61      190.84703      188.72507      900.30616    
     85700  -107360.23      560.74599     -106799.48      190.86719      188.74501      900.62139    
     85800  -107393.72      560.28687     -106833.44      190.88745      188.7651       900.93663    
     85900  -107418.75      560.07881     -106858.67      190.90785      188.78537      901.25186    
     86000  -107435.26      559.88361     -106875.38      190.92832      188.80575      901.56709    
     86100  -107443.2       559.75342     -106883.45      190.94879      188.82616      901.88233    
     86200  -107442.53      559.79844     -106882.73      190.9694       188.84672      902.19756    
     86300  -107432.65      559.41074     -106873.24      190.98947      188.86672      902.51279    
     86400  -107412.54      558.16928     -106854.37      191.00815      188.88536      902.82803    
     86500  -107381.26      556.86504     -106824.39      191.02687      188.90401      903.14326    
     86600  -107338.23      556.05689     -106782.18      191.04487      188.92188      903.45849    
     86700  -107283.19      554.69156     -106728.5       191.06221      188.93899      903.77373    
     86800  -107215.82      551.48182     -106664.34      191.07999      188.95644      904.08896    
     86900  -107135.51      546.26468     -106589.25      191.09665      188.97271      904.40419    
     87000  -107041.98      539.77364     -106502.2       191.11359      188.98926      904.71943    
     87100  -106934.94      531.49229     -106403.45      191.13019      189.00553      905.03466    
     87200  -106814.34      520.30674     -106294.04      191.14564      189.0207       905.34989    
     87300  -106680.78      505.93456     -106174.85      191.16188      189.03664      905.66513    
     87400  -106535.82      488.65833     -106047.17      191.17672      189.05121      905.98036    
     87500  -106388.78      475.98073     -105912.8       191.19178      189.06603      906.29559    
     87600  -106313.38      539.57557     -105773.8       191.20265      189.07665      906.61083    
     87700  -106292.49      621.28669     -105671.21      191.19043      189.06268      906.92606    
     87800  -106341.67      649.23627     -105692.43      191.18969      189.06093      907.24129    
     87900  -106418.14      578.01847     -105840.12      191.19945      189.06706      907.55653    
     88000  -106464.14      521.06356     -105943.07      191.20239      189.06657      907.87176    
     88100  -106494.61      532.32206     -105962.29      191.1983       189.06053      908.18699    
     88200  -106493.36      569.97562     -105923.38      191.19822      189.05817      908.50223    
     88300  -106485.54      593.21315     -105892.32      191.21905      189.078        908.81746    
     88400  -106484.94      573.15586     -105911.79      191.22638      189.08495      909.13269    
     88500  -106505.14      558.0421      -105947.1       191.23757      189.09675      909.44792    
     88600  -106525.65      562.13273     -105963.52      191.25123      189.10329      909.76316    
     88700  -106530.4       560.65813     -105969.74      191.26854      189.1122       910.07839    
     88800  -106560.29      579.54188     -105980.75      191.29675      189.13022      910.39362    
     88900  -106592.23      576.25853     -106015.97      191.32088      189.14826      910.70886    
     89000  -106624.75      559.60152     -106065.15      191.34216      189.15567      911.02409    
     89100  -106635.07      538.0715      -106096.99      191.35926      189.1651       911.33932    
     89200  -106646.11      555.0479      -106091.06      191.37884      189.17218      911.65456    
     89300  -106622.42      555.74168     -106066.68      191.38952      189.18644      911.96979    
     89400  -106634.19      593.11926     -106041.07      191.40746      189.20485      912.28502    
     89500  -106654.13      594.28014     -106059.85      191.42327      189.22588      912.60026    
     89600  -106685.5       561.3107      -106124.19      191.44974      189.2428       912.91549    
     89700  -106692.44      523.15462     -106169.29      191.48328      189.26331      913.23072    
     89800  -106693.09      545.37161     -106147.71      191.49557      189.27701      913.54596    
     89900  -106675.1       581.67221     -106093.43      191.51837      189.29546      913.86119    
     90000  -106669.62      596.88818     -106072.74      191.54352      189.30981      914.17642    
     90100  -106675.79      563.69094     -106112.1       191.57294      189.33094      914.49166    
     90200  -106689.1       538.20109     -106150.9       191.6083       189.3474       914.80689    
     90300  -106689.42      545.31211     -106144.11      191.64701      189.36145      915.12212    
     90400  -106673.5       571.03052     -106102.47      191.69308      189.38231      915.43736    
     90500  -106661.17      589.24711     -106071.92      191.73701      189.39989      915.75259    
     90600  -106668.59      579.93387     -106088.66      191.77367      189.41771      916.06782    
     90700  -106675.86      548.56969     -106127.29      191.80453      189.43213      916.38306    
     90800  -106689.24      547.91318     -106141.33      191.83348      189.44562      916.69829    
     90900  -106697.25      567.49679     -106129.75      191.85514      189.45908      917.01352    
     91000  -106682.78      565.32292     -106117.46      191.87045      189.47059      917.32876    
     91100  -106693.23      575.64734     -106117.58      191.89282      189.48559      917.64399    
     91200  -106702.96      566.51071     -106136.45      191.9186       189.50867      917.95922    
     91300  -106713.72      553.699       -106160.02      191.94022      189.52828      918.27446    
     91400  -106708.78      544.36944     -106164.41      191.95657      189.54298      918.58969    
     91500  -106698.16      560.81278     -106137.35      191.97086      189.56022      918.90492    
     91600  -106691.25      584.38565     -106106.86      191.9806       189.57867      919.22016    
     91700  -106698.78      583.1093      -106115.68      191.99693      189.6004       919.53539    
     91800  -106725.64      562.4148      -106163.23      192.00447      189.61547      919.85062    
     91900  -106736.1       536.94255     -106199.15      192.01053      189.63415      920.16586    
     92000  -106736.67      547.17768     -106189.49      192.03023      189.65763      920.48109    
     92100  -106724.21      573.45451     -106150.75      192.047        189.67393      920.79632    
     92200  -106720.2       591.26361     -106128.94      192.05852      189.69514      921.11156    
     92300  -106724.48      572.60401     -106151.88      192.06886      189.71646      921.42679    
     92400  -106737.89      549.46873     -106188.42      192.08275      189.73268      921.74202    
     92500  -106744.82      546.54894     -106198.27      192.09609      189.75328      922.05725    
     92600  -106733.98      561.32616     -106172.66      192.10625      189.76372      922.37249    
     92700  -106710.29      573.4637      -106136.83      192.12541      189.77512      922.68772    
     92800  -106711.12      588.46536     -106122.65      192.14337      189.79271      923.00295    
     92900  -106717.14      573.53065     -106143.6       192.15995      189.79884      923.31819    
     93000  -106726.61      552.80845     -106173.8       192.17997      189.81418      923.63342    
     93100  -106730.49      550.38417     -106180.1       192.19581      189.82325      923.94865    
     93200  -106724.63      563.71599     -106160.91      192.22395      189.83106      924.26389    
     93300  -106720.67      579.02881     -106141.64      192.25158      189.84054      924.57912    
     93400  -106720.47      575.49399     -106144.98      192.27153      189.8413       924.89435    
     93500  -106729.9       559.8565      -106170.05      192.3027       189.84631      925.20959    
     93600  -106738.86      549.14738     -106189.71      192.33185      189.84475      925.52482    
     93700  -106739.49      554.09403     -106185.4       192.36014      189.84829      925.84005    
     93800  -106722.98      564.16116     -106158.81      192.3868       189.85274      926.15529    
     93900  -106713.55      577.55298     -106136         192.41166      189.85588      926.47052    
     94000  -106722.73      579.26068     -106143.47      192.4415       189.86606      926.78575    
     94100  -106741.36      561.33929     -106180.02      192.46058      189.87193      927.10099    
     94200  -106753.45      542.22441     -106211.22      192.48695      189.88405      927.41622    
     94300  -106759.31      549.11281     -106210.19      192.51512      189.89498      927.73145    
     94400  -106755.84      571.37322     -106184.46      192.52929      189.90582      928.04669    
     94500  -106747.9       581.5652      -106166.33      192.54876      189.92054      928.36192    
     94600  -106751.31      573.03751     -106178.27      192.56937      189.93061      928.67715    
     94700  -106767.24      557.79962     -106209.44      192.58582      189.94609      928.99239    
     94800  -106774.25      545.09241     -106229.16      192.603        189.96176      929.30762    
     94900  -106774.04      556.35855     -106217.68      192.61722      189.97295      929.62285    
     95000  -106762.45      572.97745     -106189.47      192.6331       189.99266      929.93809    
     95100  -106762.37      582.26228     -106180.1       192.6471       190.01539      930.25332    
     95200  -106776.18      570.71807     -106205.46      192.65971      190.03181      930.56855    
     95300  -106796.06      556.58197     -106239.48      192.67593      190.05081      930.88379    
     95400  -106796.01      542.04661     -106253.96      192.68566      190.06726      931.19902    
     95500  -106799.01      563.26988     -106235.74      192.69673      190.08707      931.51425    
     95600  -106783.01      574.81988     -106208.19      192.71251      190.1134       931.82949    
     95700  -106776.16      574.28807     -106201.87      192.71772      190.13115      932.14472    
     95800  -106789.92      565.09435     -106224.82      192.72576      190.15359      932.45995    
     95900  -106804.2       554.2589      -106249.94      192.73748      190.18162      932.77519    
     96000  -106802.99      549.91741     -106253.07      192.73997      190.20208      933.09042    
     96100  -106795.05      564.11091     -106230.94      192.74288      190.22282      933.40565    
     96200  -106783.27      576.04774     -106207.22      192.74807      190.24649      933.72089    
     96300  -106782.78      574.76589     -106208.02      192.74764      190.26766      934.03612    
     96400  -106793.26      560.44794     -106232.82      192.75105      190.29079      934.35135    
     96500  -106803.02      548.02721     -106254.99      192.74693      190.3058       934.66658    
     96600  -106803.3       552.91643     -106250.38      192.74493      190.32211      934.98182    
     96700  -106794.05      568.98095     -106225.06      192.74354      190.34287      935.29705    
     96800  -106785.81      580.12723     -106205.69      192.73346      190.3538       935.61228    
     96900  -106789.32      572.57396     -106216.74      192.72827      190.36632      935.92752    
     97000  -106809.31      563.14879     -106246.16      192.72191      190.37912      936.24275    
     97100  -106815.19      547.78633     -106267.4       192.71021      190.38727      936.55798    
     97200  -106815.39      555.70252     -106259.69      192.69834      190.39386      936.87322    
     97300  -106806.66      572.20982     -106234.45      192.68258      190.39912      937.18845    
     97400  -106806.07      583.069       -106223         192.66775      190.40217      937.50368    
     97500  -106809.7       569.63326     -106240.07      192.65465      190.40271      937.81892    
     97600  -106823.23      553.92014     -106269.31      192.63873      190.39888      938.13415    
     97700  -106833.42      551.05542     -106282.37      192.62623      190.3942       938.44938    
     97800  -106828.68      557.00659     -106271.67      192.61629      190.39066      938.76462    
     97900  -106828.76      576.8154      -106251.95      192.60299      190.38244      939.07985    
     98000  -106828.8       580.86385     -106247.94      192.5894       190.36864      939.39508    
     98100  -106828.98      563.12839     -106265.85      192.57859      190.35802      939.71032    
     98200  -106835.32      550.31116     -106285.01      192.56696      190.34303      940.02555    
     98300  -106846         557.58812     -106288.41      192.55524      190.33167      940.34078    
     98400  -106842.78      565.31471     -106277.46      192.54304      190.31905      940.65602    
     98500  -106837.32      570.84179     -106266.48      192.5276       190.29844      940.97125    
     98600  -106840.3       571.08635     -106269.22      192.51541      190.28337      941.28648    
     98700  -106852.96      566.03468     -106286.92      192.50449      190.26608      941.60172    
     98800  -106862.43      558.2448      -106304.19      192.48687      190.24192      941.91695    
     98900  -106859.72      553.99471     -106305.72      192.47599      190.2234       942.23218    
     99000  -106859.71      566.16318     -106293.55      192.46466      190.20159      942.54742    
     99100  -106860.81      573.86516     -106286.94      192.44989      190.17917      942.86265    
     99200  -106861.74      564.08149     -106297.66      192.44002      190.15666      943.17788    
     99300  -106873.75      559.19911     -106314.55      192.42689      190.12661      943.49312    
     99400  -106877.57      556.56818     -106321         192.41658      190.10143      943.80835    
     99500  -106876.92      562.74634     -106314.18      192.40466      190.08088      944.12358    
     99600  -106875.02      569.16739     -106305.85      192.38311      190.05591      944.43882    
     99700  -106872.91      566.39638     -106306.51      192.36414      190.03673      944.75405    
     99800  -106878.14      563.66658     -106314.47      192.34404      190.01851      945.06928    
     99900  -106886.84      562.31726     -106324.53      192.31946      190.00085      945.38452    
    100000  -106895.53      564.10348     -106331.42      192.29372      189.98712      945.69975    
Loop time of 2386.35 on 12 procs for 100000 steps with 14560 atoms

Performance: 3.621 ns/day, 6.629 hours/ns, 41.905 timesteps/s, 610.137 katom-step/s
89.6% CPU use with 12 MPI tasks x 1 OpenMP threads

MPI task timing breakdown:
Section |  min time  |  avg time  |  max time  |%varavg| %total
---------------------------------------------------------------
Pair    | 1101.3     | 1527.8     | 2299.2     | 968.4 | 64.02
Neigh   | 2.7651     | 6.4033     | 10.216     |  98.6 |  0.27
Comm    | 37.055     | 658.31     | 884.15     |1249.2 | 27.59
Output  | 0.6275     | 0.66805    | 0.71527    |   3.3 |  0.03
Modify  | 37.269     | 190.65     | 521.45     |1418.6 |  7.99
Other   |            | 2.511      |            |       |  0.11

Nlocal:        1213.33 ave        2104 max           0 min
Histogram: 4 0 0 0 0 0 0 1 4 3
Nghost:           1516 ave        2566 max           9 min
Histogram: 2 2 0 0 0 0 1 2 0 5
Neighs:              0 ave           0 max           0 min
Histogram: 12 0 0 0 0 0 0 0 0 0

Total # of neighbors = 0
Ave neighs/atom = 0
Neighbor list builds = 641
Dangerous builds = 0
Total wall time: 0:39:46
