LAMMPS data file via write_data, version 2 Aug 2023, timestep = 0, units = metal

6440 atoms
2 atom types

-100 100 xlo xhi
-100 100 ylo yhi
-2.331251 286.22841200000005 zlo zhi

Masses

1 12.0107
2 12.0107

Atoms # atomic

7 1 -2.065626 -6.357345 0 0 0 0
8 1 -3.342254 -5.788953 0 0 0 0
9 1 -5.40788 -3.929055 0 0 0 0
10 1 -6.106602 -2.718834 0 0 0 0
26 1 -1.389787 -6.538435 1.212436 0 0 0
27 1 -3.929055 -5.40788 1.212436 0 0 0
28 1 -4.967557 -4.472809 1.212436 0 0 0
29 1 -6.357345 -2.065626 1.212436 0 0 0
30 1 -6.647889 -0.698721 1.212436 0 0 0
45 1 -2.065626 -6.357345 2.424871 0 0 0
46 1 -3.342254 -5.788953 2.424871 0 0 0
47 1 -5.40788 -3.929055 2.424871 0 0 0
48 1 -6.106602 -2.718834 2.424871 0 0 0
64 1 -1.389787 -6.538435 3.637307 0 0 0
65 1 -3.929055 -5.40788 3.637307 0 0 0
66 1 -4.967557 -4.472809 3.637307 0 0 0
67 1 -6.357345 -2.065626 3.637307 0 0 0
68 1 -6.647889 -0.698721 3.637307 0 0 0
83 1 -2.065626 -6.357345 4.849742 0 0 0
84 1 -3.342254 -5.788953 4.849742 0 0 0
85 1 -5.40788 -3.929055 4.849742 0 0 0
86 1 -6.106602 -2.718834 4.849742 0 0 0
102 1 -1.389787 -6.538435 6.062178 0 0 0
103 1 -3.929055 -5.40788 6.062178 0 0 0
104 1 -4.967557 -4.472809 6.062178 0 0 0
105 1 -6.357345 -2.065626 6.062178 0 0 0
106 1 -6.647889 -0.698721 6.062178 0 0 0
121 1 -2.065626 -6.357345 7.274613 0 0 0
122 1 -3.342254 -5.788953 7.274613 0 0 0
123 1 -5.40788 -3.929055 7.274613 0 0 0
124 1 -6.106602 -2.718834 7.274613 0 0 0
141 1 -3.929055 -5.40788 8.487049 0 0 0
142 1 -4.967557 -4.472809 8.487049 0 0 0
143 1 -6.357345 -2.065626 8.487049 0 0 0
144 1 -6.647889 -0.698721 8.487049 0 0 0
160 1 -1.389787 -6.538435 8.487049 0 0 0
161 1 -5.40788 -3.929055 9.699485 0 0 0
162 1 -6.106602 -2.718834 9.699485 0 0 0
179 1 -2.065626 -6.357345 9.699485 0 0 0
180 1 -3.342254 -5.788953 9.699485 0 0 0
181 1 -6.357345 -2.065626 10.91192 0 0 0
182 1 -6.647889 -0.698721 10.91192 0 0 0
198 1 -1.389787 -6.538435 10.91192 0 0 0
199 1 -3.929055 -5.40788 10.91192 0 0 0
200 1 -4.967557 -4.472809 10.91192 0 0 0
217 1 -2.065626 -6.357345 12.124356 0 0 0
218 1 -3.342254 -5.788953 12.124356 0 0 0
219 1 -5.40788 -3.929055 12.124356 0 0 0
220 1 -6.106602 -2.718834 12.124356 0 0 0
236 1 -1.389787 -6.538435 13.336791 0 0 0
237 1 -3.929055 -5.40788 13.336791 0 0 0
238 1 -4.967557 -4.472809 13.336791 0 0 0
239 1 -6.357345 -2.065626 13.336791 0 0 0
240 1 -6.647889 -0.698721 13.336791 0 0 0
255 1 -2.065626 -6.357345 14.549227 0 0 0
256 1 -3.342254 -5.788953 14.549227 0 0 0
257 1 -5.40788 -3.929055 14.549227 0 0 0
258 1 -6.106602 -2.718834 14.549227 0 0 0
274 1 -1.389787 -6.538435 15.761662 0 0 0
275 1 -3.929055 -5.40788 15.761662 0 0 0
276 1 -4.967557 -4.472809 15.761662 0 0 0
277 1 -6.357345 -2.065626 15.761662 0 0 0
278 1 -6.647889 -0.698721 15.761662 0 0 0
293 1 -2.065626 -6.357345 16.974098 0 0 0
294 1 -3.342254 -5.788953 16.974098 0 0 0
295 1 -5.40788 -3.929055 16.974098 0 0 0
296 1 -6.106602 -2.718834 16.974098 0 0 0
312 1 -1.389787 -6.538435 18.186533 0 0 0
313 1 -3.929055 -5.40788 18.186533 0 0 0
314 1 -4.967557 -4.472809 18.186533 0 0 0
315 1 -6.357345 -2.065626 18.186533 0 0 0
316 1 -6.647889 -0.698721 18.186533 0 0 0
331 1 -2.065626 -6.357345 19.398969 0 0 0
332 1 -3.342254 -5.788953 19.398969 0 0 0
333 1 -5.40788 -3.929055 19.398969 0 0 0
334 1 -6.106602 -2.718834 19.398969 0 0 0
350 1 -1.389787 -6.538435 20.611405 0 0 0
351 1 -3.929055 -5.40788 20.611405 0 0 0
352 1 -4.967557 -4.472809 20.611405 0 0 0
353 1 -6.357345 -2.065626 20.611405 0 0 0
354 1 -6.647889 -0.698721 20.611405 0 0 0
369 1 -2.065626 -6.357345 21.82384 0 0 0
370 1 -3.342254 -5.788953 21.82384 0 0 0
371 1 -5.40788 -3.929055 21.82384 0 0 0
372 1 -6.106602 -2.718834 21.82384 0 0 0
388 1 -1.389787 -6.538435 23.036276 0 0 0
389 1 -3.929055 -5.40788 23.036276 0 0 0
390 1 -4.967557 -4.472809 23.036276 0 0 0
391 1 -6.357345 -2.065626 23.036276 0 0 0
392 1 -6.647889 -0.698721 23.036276 0 0 0
407 1 -2.065626 -6.357345 24.248711 0 0 0
408 1 -3.342254 -5.788953 24.248711 0 0 0
409 1 -5.40788 -3.929055 24.248711 0 0 0
410 1 -6.106602 -2.718834 24.248711 0 0 0
426 1 -1.389787 -6.538435 25.461147 0 0 0
427 1 -3.929055 -5.40788 25.461147 0 0 0
428 1 -4.967557 -4.472809 25.461147 0 0 0
429 1 -6.357345 -2.065626 25.461147 0 0 0
430 1 -6.647889 -0.698721 25.461147 0 0 0
445 1 -2.065626 -6.357345 26.673582 0 0 0
446 1 -3.342254 -5.788953 26.673582 0 0 0
447 1 -5.40788 -3.929055 26.673582 0 0 0
448 1 -6.106602 -2.718834 26.673582 0 0 0
464 1 -1.389787 -6.538435 27.886018 0 0 0
465 1 -3.929055 -5.40788 27.886018 0 0 0
466 1 -4.967557 -4.472809 27.886018 0 0 0
467 1 -6.357345 -2.065626 27.886018 0 0 0
468 1 -6.647889 -0.698721 27.886018 0 0 0
483 1 -2.065626 -6.357345 29.098454 0 0 0
484 1 -3.342254 -5.788953 29.098454 0 0 0
485 1 -5.40788 -3.929055 29.098454 0 0 0
486 1 -6.106602 -2.718834 29.098454 0 0 0
502 1 -1.389787 -6.538435 30.310889 0 0 0
503 1 -3.929055 -5.40788 30.310889 0 0 0
504 1 -4.967557 -4.472809 30.310889 0 0 0
505 1 -6.357345 -2.065626 30.310889 0 0 0
506 1 -6.647889 -0.698721 30.310889 0 0 0
521 1 -2.065626 -6.357345 31.523325 0 0 0
522 1 -3.342254 -5.788953 31.523325 0 0 0
523 1 -5.40788 -3.929055 31.523325 0 0 0
524 1 -6.106602 -2.718834 31.523325 0 0 0
541 1 -3.929055 -5.40788 32.73576 0 0 0
542 1 -4.967557 -4.472809 32.73576 0 0 0
543 1 -6.357345 -2.065626 32.73576 0 0 0
544 1 -6.647889 -0.698721 32.73576 0 0 0
560 1 -1.389787 -6.538435 32.73576 0 0 0
561 1 -5.40788 -3.929055 33.948196 0 0 0
562 1 -6.106602 -2.718834 33.948196 0 0 0
579 1 -2.065626 -6.357345 33.948196 0 0 0
580 1 -3.342254 -5.788953 33.948196 0 0 0
581 1 -6.357345 -2.065626 35.160631 0 0 0
582 1 -6.647889 -0.698721 35.160631 0 0 0
598 1 -1.389787 -6.538435 35.160631 0 0 0
599 1 -3.929055 -5.40788 35.160631 0 0 0
600 1 -4.967557 -4.472809 35.160631 0 0 0
617 1 -2.065626 -6.357345 36.373067 0 0 0
618 1 -3.342254 -5.788953 36.373067 0 0 0
619 1 -5.40788 -3.929055 36.373067 0 0 0
620 1 -6.106602 -2.718834 36.373067 0 0 0
636 1 -1.389787 -6.538435 37.585503 0 0 0
637 1 -3.929055 -5.40788 37.585503 0 0 0
638 1 -4.967557 -4.472809 37.585503 0 0 0
639 1 -6.357345 -2.065626 37.585503 0 0 0
640 1 -6.647889 -0.698721 37.585503 0 0 0
655 1 -2.065626 -6.357345 38.797938 0 0 0
656 1 -3.342254 -5.788953 38.797938 0 0 0
657 1 -5.40788 -3.929055 38.797938 0 0 0
658 1 -6.106602 -2.718834 38.797938 0 0 0
674 1 -1.389787 -6.538435 40.010374 0 0 0
675 1 -3.929055 -5.40788 40.010374 0 0 0
676 1 -4.967557 -4.472809 40.010374 0 0 0
677 1 -6.357345 -2.065626 40.010374 0 0 0
678 1 -6.647889 -0.698721 40.010374 0 0 0
697 2 -2.088038 -0.828285 2.603933 0 0 0
699 2 -0.842638 -1.030985 3.182233 0 0 0
705 2 -0.488538 -2.919085 1.744933 0 0 0
706 2 -1.740738 -2.718185 1.172133 0 0 0
707 2 -0.037038 -2.074185 2.753733 0 0 0
708 2 -2.546338 -1.670785 1.602633 0 0 0
709 2 -3.257938 -0.919885 0.678533 0 0 0
710 2 -1.652038 -3.011885 -0.181267 0 0 0
711 2 -2.351938 -2.249685 -1.108567 0 0 0
712 2 -3.162038 -1.200685 -0.679367 0 0 0
717 2 -0.341738 -3.396185 -0.450967 0 0 0
722 2 -1.745738 -1.875185 -2.299867 0 0 0
727 2 -3.063338 -0.168685 -1.602267 0 0 0
757 2 -2.088038 -0.828285 12.900333 0 0 0
759 2 -0.842638 -1.030985 13.478633 0 0 0
765 2 -0.488538 -2.919085 12.041333 0 0 0
766 2 -1.740738 -2.718185 11.468533 0 0 0
767 2 -0.037038 -2.074185 13.050133 0 0 0
768 2 -2.546338 -1.670785 11.899033 0 0 0
769 2 -3.257938 -0.919885 10.974933 0 0 0
770 2 -1.652038 -3.011885 10.115133 0 0 0
771 2 -2.351938 -2.249685 9.187833 0 0 0
772 2 -3.162038 -1.200685 9.617033 0 0 0
777 2 -0.341738 -3.396185 9.845433 0 0 0
781 2 -2.180538 -0.584085 7.706933 0 0 0
782 2 -1.745738 -1.875185 7.996533 0 0 0
783 2 -0.436238 -2.252685 7.720333 0 0 0
787 2 -3.063338 -0.168685 8.694133 0 0 0
817 2 -2.088038 -0.828285 23.196733 0 0 0
819 2 -0.842638 -1.030985 23.775033 0 0 0
825 2 -0.488538 -2.919085 22.337733 0 0 0
826 2 -1.740738 -2.718185 21.764933 0 0 0
827 2 -0.037038 -2.074185 23.346533 0 0 0
828 2 -2.546338 -1.670785 22.195433 0 0 0
829 2 -3.257938 -0.919885 21.271333 0 0 0
830 2 -1.652038 -3.011885 20.411533 0 0 0
831 2 -2.351938 -2.249685 19.484233 0 0 0
832 2 -3.162038 -1.200685 19.913433 0 0 0
837 2 -0.341738 -3.396185 20.141833 0 0 0
841 2 -2.180538 -0.584085 18.003333 0 0 0
842 2 -1.745738 -1.875185 18.292933 0 0 0
843 2 -0.436238 -2.252685 18.016733 0 0 0
847 2 -3.063338 -0.168685 18.990533 0 0 0
877 2 -2.088038 -0.828285 33.493133 0 0 0
879 2 -0.842638 -1.030985 34.071433 0 0 0
885 2 -0.488538 -2.919085 32.634133 0 0 0
886 2 -1.740738 -2.718185 32.061333 0 0 0
887 2 -0.037038 -2.074185 33.642933 0 0 0
888 2 -2.546338 -1.670785 32.491833 0 0 0
889 2 -3.257938 -0.919885 31.567733 0 0 0
890 2 -1.652038 -3.011885 30.707933 0 0 0
891 2 -2.351938 -2.249685 29.780633 0 0 0
892 2 -3.162038 -1.200685 30.209833 0 0 0
897 2 -0.341738 -3.396185 30.438233 0 0 0
901 2 -2.180538 -0.584085 28.299733 0 0 0
902 2 -1.745738 -1.875185 28.589333 0 0 0
903 2 -0.436238 -2.252685 28.313133 0 0 0
907 2 -3.063338 -0.168685 29.286933 0 0 0
927 1 -2.065626 -6.357345 41.222809000000005 0 0 0
928 1 -3.342254 -5.788953 41.222809000000005 0 0 0
929 1 -5.40788 -3.929055 41.222809000000005 0 0 0
930 1 -6.106602 -2.718834 41.222809000000005 0 0 0
946 1 -1.389787 -6.538435 42.435245 0 0 0
947 1 -3.929055 -5.40788 42.435245 0 0 0
948 1 -4.967557 -4.472809 42.435245 0 0 0
949 1 -6.357345 -2.065626 42.435245 0 0 0
950 1 -6.647889 -0.698721 42.435245 0 0 0
965 1 -2.065626 -6.357345 43.64768000000001 0 0 0
966 1 -3.342254 -5.788953 43.64768000000001 0 0 0
967 1 -5.40788 -3.929055 43.64768000000001 0 0 0
968 1 -6.106602 -2.718834 43.64768000000001 0 0 0
984 1 -1.389787 -6.538435 44.860116000000005 0 0 0
985 1 -3.929055 -5.40788 44.860116000000005 0 0 0
986 1 -4.967557 -4.472809 44.860116000000005 0 0 0
987 1 -6.357345 -2.065626 44.860116000000005 0 0 0
988 1 -6.647889 -0.698721 44.860116000000005 0 0 0
1003 1 -2.065626 -6.357345 46.072551000000004 0 0 0
1004 1 -3.342254 -5.788953 46.072551000000004 0 0 0
1005 1 -5.40788 -3.929055 46.072551000000004 0 0 0
1006 1 -6.106602 -2.718834 46.072551000000004 0 0 0
1022 1 -1.389787 -6.538435 47.28498700000001 0 0 0
1023 1 -3.929055 -5.40788 47.28498700000001 0 0 0
1024 1 -4.967557 -4.472809 47.28498700000001 0 0 0
1025 1 -6.357345 -2.065626 47.28498700000001 0 0 0
1026 1 -6.647889 -0.698721 47.28498700000001 0 0 0
1041 1 -2.065626 -6.357345 48.49742200000001 0 0 0
1042 1 -3.342254 -5.788953 48.49742200000001 0 0 0
1043 1 -5.40788 -3.929055 48.49742200000001 0 0 0
1044 1 -6.106602 -2.718834 48.49742200000001 0 0 0
1061 1 -3.929055 -5.40788 49.709858000000004 0 0 0
1062 1 -4.967557 -4.472809 49.709858000000004 0 0 0
1063 1 -6.357345 -2.065626 49.709858000000004 0 0 0
1064 1 -6.647889 -0.698721 49.709858000000004 0 0 0
1080 1 -1.389787 -6.538435 49.709858000000004 0 0 0
1081 1 -5.40788 -3.929055 50.92229400000001 0 0 0
1082 1 -6.106602 -2.718834 50.92229400000001 0 0 0
1099 1 -2.065626 -6.357345 50.92229400000001 0 0 0
1100 1 -3.342254 -5.788953 50.92229400000001 0 0 0
1101 1 -6.357345 -2.065626 52.13472900000001 0 0 0
1102 1 -6.647889 -0.698721 52.13472900000001 0 0 0
1118 1 -1.389787 -6.538435 52.13472900000001 0 0 0
1119 1 -3.929055 -5.40788 52.13472900000001 0 0 0
1120 1 -4.967557 -4.472809 52.13472900000001 0 0 0
1137 1 -2.065626 -6.357345 53.347165000000004 0 0 0
1138 1 -3.342254 -5.788953 53.347165000000004 0 0 0
1139 1 -5.40788 -3.929055 53.347165000000004 0 0 0
1140 1 -6.106602 -2.718834 53.347165000000004 0 0 0
1156 1 -1.389787 -6.538435 54.5596 0 0 0
1157 1 -3.929055 -5.40788 54.5596 0 0 0
1158 1 -4.967557 -4.472809 54.5596 0 0 0
1159 1 -6.357345 -2.065626 54.5596 0 0 0
1160 1 -6.647889 -0.698721 54.5596 0 0 0
1175 1 -2.065626 -6.357345 55.77203600000001 0 0 0
1176 1 -3.342254 -5.788953 55.77203600000001 0 0 0
1177 1 -5.40788 -3.929055 55.77203600000001 0 0 0
1178 1 -6.106602 -2.718834 55.77203600000001 0 0 0
1194 1 -1.389787 -6.538435 56.984471000000006 0 0 0
1195 1 -3.929055 -5.40788 56.984471000000006 0 0 0
1196 1 -4.967557 -4.472809 56.984471000000006 0 0 0
1197 1 -6.357345 -2.065626 56.984471000000006 0 0 0
1198 1 -6.647889 -0.698721 56.984471000000006 0 0 0
1213 1 -2.065626 -6.357345 58.19690700000001 0 0 0
1214 1 -3.342254 -5.788953 58.19690700000001 0 0 0
1215 1 -5.40788 -3.929055 58.19690700000001 0 0 0
1216 1 -6.106602 -2.718834 58.19690700000001 0 0 0
1232 1 -1.389787 -6.538435 59.40934200000001 0 0 0
1233 1 -3.929055 -5.40788 59.40934200000001 0 0 0
1234 1 -4.967557 -4.472809 59.40934200000001 0 0 0
1235 1 -6.357345 -2.065626 59.40934200000001 0 0 0
1236 1 -6.647889 -0.698721 59.40934200000001 0 0 0
1251 1 -2.065626 -6.357345 60.621778000000006 0 0 0
1252 1 -3.342254 -5.788953 60.621778000000006 0 0 0
1253 1 -5.40788 -3.929055 60.621778000000006 0 0 0
1254 1 -6.106602 -2.718834 60.621778000000006 0 0 0
1270 1 -1.389787 -6.538435 61.834214 0 0 0
1271 1 -3.929055 -5.40788 61.834214 0 0 0
1272 1 -4.967557 -4.472809 61.834214 0 0 0
1273 1 -6.357345 -2.065626 61.834214 0 0 0
1274 1 -6.647889 -0.698721 61.834214 0 0 0
1289 1 -2.065626 -6.357345 63.046649 0 0 0
1290 1 -3.342254 -5.788953 63.046649 0 0 0
1291 1 -5.40788 -3.929055 63.046649 0 0 0
1292 1 -6.106602 -2.718834 63.046649 0 0 0
1308 1 -1.389787 -6.538435 64.259085 0 0 0
1309 1 -3.929055 -5.40788 64.259085 0 0 0
1310 1 -4.967557 -4.472809 64.259085 0 0 0
1311 1 -6.357345 -2.065626 64.259085 0 0 0
1312 1 -6.647889 -0.698721 64.259085 0 0 0
1327 1 -2.065626 -6.357345 65.47152 0 0 0
1328 1 -3.342254 -5.788953 65.47152 0 0 0
1329 1 -5.40788 -3.929055 65.47152 0 0 0
1330 1 -6.106602 -2.718834 65.47152 0 0 0
1346 1 -1.389787 -6.538435 66.68395600000001 0 0 0
1347 1 -3.929055 -5.40788 66.68395600000001 0 0 0
1348 1 -4.967557 -4.472809 66.68395600000001 0 0 0
1349 1 -6.357345 -2.065626 66.68395600000001 0 0 0
1350 1 -6.647889 -0.698721 66.68395600000001 0 0 0
1365 1 -2.065626 -6.357345 67.89639100000001 0 0 0
1366 1 -3.342254 -5.788953 67.89639100000001 0 0 0
1367 1 -5.40788 -3.929055 67.89639100000001 0 0 0
1368 1 -6.106602 -2.718834 67.89639100000001 0 0 0
1384 1 -1.389787 -6.538435 69.108827 0 0 0
1385 1 -3.929055 -5.40788 69.108827 0 0 0
1386 1 -4.967557 -4.472809 69.108827 0 0 0
1387 1 -6.357345 -2.065626 69.108827 0 0 0
1388 1 -6.647889 -0.698721 69.108827 0 0 0
1403 1 -2.065626 -6.357345 70.321263 0 0 0
1404 1 -3.342254 -5.788953 70.321263 0 0 0
1405 1 -5.40788 -3.929055 70.321263 0 0 0
1406 1 -6.106602 -2.718834 70.321263 0 0 0
1422 1 -1.389787 -6.538435 71.533698 0 0 0
1423 1 -3.929055 -5.40788 71.533698 0 0 0
1424 1 -4.967557 -4.472809 71.533698 0 0 0
1425 1 -6.357345 -2.065626 71.533698 0 0 0
1426 1 -6.647889 -0.698721 71.533698 0 0 0
1441 1 -2.065626 -6.357345 72.74613400000001 0 0 0
1442 1 -3.342254 -5.788953 72.74613400000001 0 0 0
1443 1 -5.40788 -3.929055 72.74613400000001 0 0 0
1444 1 -6.106602 -2.718834 72.74613400000001 0 0 0
1461 1 -3.929055 -5.40788 73.95856900000001 0 0 0
1462 1 -4.967557 -4.472809 73.95856900000001 0 0 0
1463 1 -6.357345 -2.065626 73.95856900000001 0 0 0
1464 1 -6.647889 -0.698721 73.95856900000001 0 0 0
1480 1 -1.389787 -6.538435 73.95856900000001 0 0 0
1481 1 -5.40788 -3.929055 75.17100500000001 0 0 0
1482 1 -6.106602 -2.718834 75.17100500000001 0 0 0
1499 1 -2.065626 -6.357345 75.17100500000001 0 0 0
1500 1 -3.342254 -5.788953 75.17100500000001 0 0 0
1501 1 -6.357345 -2.065626 76.38344000000001 0 0 0
1502 1 -6.647889 -0.698721 76.38344000000001 0 0 0
1518 1 -1.389787 -6.538435 76.38344000000001 0 0 0
1519 1 -3.929055 -5.40788 76.38344000000001 0 0 0
1520 1 -4.967557 -4.472809 76.38344000000001 0 0 0
1537 1 -2.065626 -6.357345 77.595876 0 0 0
1538 1 -3.342254 -5.788953 77.595876 0 0 0
1539 1 -5.40788 -3.929055 77.595876 0 0 0
1540 1 -6.106602 -2.718834 77.595876 0 0 0
1556 1 -1.389787 -6.538435 78.808312 0 0 0
1557 1 -3.929055 -5.40788 78.808312 0 0 0
1558 1 -4.967557 -4.472809 78.808312 0 0 0
1559 1 -6.357345 -2.065626 78.808312 0 0 0
1560 1 -6.647889 -0.698721 78.808312 0 0 0
1575 1 -2.065626 -6.357345 80.020747 0 0 0
1576 1 -3.342254 -5.788953 80.020747 0 0 0
1577 1 -5.40788 -3.929055 80.020747 0 0 0
1578 1 -6.106602 -2.718834 80.020747 0 0 0
1594 1 -1.389787 -6.538435 81.233183 0 0 0
1595 1 -3.929055 -5.40788 81.233183 0 0 0
1596 1 -4.967557 -4.472809 81.233183 0 0 0
1597 1 -6.357345 -2.065626 81.233183 0 0 0
1598 1 -6.647889 -0.698721 81.233183 0 0 0
1617 2 -2.088038 -0.828285 43.826742 0 0 0
1619 2 -0.842638 -1.030985 44.40504200000001 0 0 0
1625 2 -0.488538 -2.919085 42.96774200000001 0 0 0
1626 2 -1.740738 -2.718185 42.39494200000001 0 0 0
1627 2 -0.037038 -2.074185 43.976542 0 0 0
1628 2 -2.546338 -1.670785 42.825442 0 0 0
1629 2 -3.257938 -0.919885 41.90134200000001 0 0 0
1630 2 -1.652038 -3.011885 41.04154200000001 0 0 0
1631 2 -2.351938 -2.249685 40.114242000000004 0 0 0
1632 2 -3.162038 -1.200685 40.543442000000006 0 0 0
1637 2 -0.341738 -3.396185 40.77184200000001 0 0 0
1641 2 -2.180538 -0.584085 38.633342000000006 0 0 0
1642 2 -1.745738 -1.875185 38.922942000000006 0 0 0
1643 2 -0.436238 -2.252685 38.646742 0 0 0
1647 2 -3.063338 -0.168685 39.62054200000001 0 0 0
1677 2 -2.088038 -0.828285 54.123142 0 0 0
1679 2 -0.842638 -1.030985 54.70144200000001 0 0 0
1685 2 -0.488538 -2.919085 53.26414200000001 0 0 0
1686 2 -1.740738 -2.718185 52.691342000000006 0 0 0
1687 2 -0.037038 -2.074185 54.27294200000001 0 0 0
1688 2 -2.546338 -1.670785 53.121842 0 0 0
1689 2 -3.257938 -0.919885 52.197742000000005 0 0 0
1690 2 -1.652038 -3.011885 51.337942000000005 0 0 0
1691 2 -2.351938 -2.249685 50.410642 0 0 0
1692 2 -3.162038 -1.200685 50.839842000000004 0 0 0
1697 2 -0.341738 -3.396185 51.068242000000005 0 0 0
1701 2 -2.180538 -0.584085 48.929742000000005 0 0 0
1702 2 -1.745738 -1.875185 49.219342000000005 0 0 0
1703 2 -0.436238 -2.252685 48.94314200000001 0 0 0
1707 2 -3.063338 -0.168685 49.916942000000006 0 0 0
1737 2 -2.088038 -0.828285 64.419542 0 0 0
1739 2 -0.842638 -1.030985 64.997842 0 0 0
1745 2 -0.488538 -2.919085 63.560542000000005 0 0 0
1746 2 -1.740738 -2.718185 62.987742000000004 0 0 0
1747 2 -0.037038 -2.074185 64.569342 0 0 0
1748 2 -2.546338 -1.670785 63.418242000000006 0 0 0
1749 2 -3.257938 -0.919885 62.494142000000004 0 0 0
1750 2 -1.652038 -3.011885 61.634342000000004 0 0 0
1751 2 -2.351938 -2.249685 60.707042 0 0 0
1752 2 -3.162038 -1.200685 61.13624200000001 0 0 0
1757 2 -0.341738 -3.396185 61.364642 0 0 0
1761 2 -2.180538 -0.584085 59.22614200000001 0 0 0
1762 2 -1.745738 -1.875185 59.515742 0 0 0
1763 2 -0.436238 -2.252685 59.239542 0 0 0
1767 2 -3.063338 -0.168685 60.213342000000004 0 0 0
1797 2 -2.088038 -0.828285 74.71594200000001 0 0 0
1799 2 -0.842638 -1.030985 75.294242 0 0 0
1805 2 -0.488538 -2.919085 73.856942 0 0 0
1806 2 -1.740738 -2.718185 73.284142 0 0 0
1807 2 -0.037038 -2.074185 74.86574200000001 0 0 0
1808 2 -2.546338 -1.670785 73.714642 0 0 0
1809 2 -3.257938 -0.919885 72.790542 0 0 0
1810 2 -1.652038 -3.011885 71.93074200000001 0 0 0
1811 2 -2.351938 -2.249685 71.003442 0 0 0
1812 2 -3.162038 -1.200685 71.432642 0 0 0
1817 2 -0.341738 -3.396185 71.66104200000001 0 0 0
1821 2 -2.180538 -0.584085 69.522542 0 0 0
1822 2 -1.745738 -1.875185 69.81214200000001 0 0 0
1823 2 -0.436238 -2.252685 69.535942 0 0 0
1827 2 -3.063338 -0.168685 70.509742 0 0 0
1847 1 -2.065626 -6.357345 82.44561800000001 0 0 0
1848 1 -3.342254 -5.788953 82.44561800000001 0 0 0
1849 1 -5.40788 -3.929055 82.44561800000001 0 0 0
1850 1 -6.106602 -2.718834 82.44561800000001 0 0 0
1866 1 -1.389787 -6.538435 83.658054 0 0 0
1867 1 -3.929055 -5.40788 83.658054 0 0 0
1868 1 -4.967557 -4.472809 83.658054 0 0 0
1869 1 -6.357345 -2.065626 83.658054 0 0 0
1870 1 -6.647889 -0.698721 83.658054 0 0 0
1885 1 -2.065626 -6.357345 84.870489 0 0 0
1886 1 -3.342254 -5.788953 84.870489 0 0 0
1887 1 -5.40788 -3.929055 84.870489 0 0 0
1888 1 -6.106602 -2.718834 84.870489 0 0 0
1904 1 -1.389787 -6.538435 86.08292500000002 0 0 0
1905 1 -3.929055 -5.40788 86.08292500000002 0 0 0
1906 1 -4.967557 -4.472809 86.08292500000002 0 0 0
1907 1 -6.357345 -2.065626 86.08292500000002 0 0 0
1908 1 -6.647889 -0.698721 86.08292500000002 0 0 0
1923 1 -2.065626 -6.357345 87.29536000000002 0 0 0
1924 1 -3.342254 -5.788953 87.29536000000002 0 0 0
1925 1 -5.40788 -3.929055 87.29536000000002 0 0 0
1926 1 -6.106602 -2.718834 87.29536000000002 0 0 0
1942 1 -1.389787 -6.538435 88.50779600000001 0 0 0
1943 1 -3.929055 -5.40788 88.50779600000001 0 0 0
1944 1 -4.967557 -4.472809 88.50779600000001 0 0 0
1945 1 -6.357345 -2.065626 88.50779600000001 0 0 0
1946 1 -6.647889 -0.698721 88.50779600000001 0 0 0
1961 1 -2.065626 -6.357345 89.72023100000001 0 0 0
1962 1 -3.342254 -5.788953 89.72023100000001 0 0 0
1963 1 -5.40788 -3.929055 89.72023100000001 0 0 0
1964 1 -6.106602 -2.718834 89.72023100000001 0 0 0
1981 1 -3.929055 -5.40788 90.93266700000001 0 0 0
1982 1 -4.967557 -4.472809 90.93266700000001 0 0 0
1983 1 -6.357345 -2.065626 90.93266700000001 0 0 0
1984 1 -6.647889 -0.698721 90.93266700000001 0 0 0
2000 1 -1.389787 -6.538435 90.93266700000001 0 0 0
2001 1 -5.40788 -3.929055 92.145103 0 0 0
2002 1 -6.106602 -2.718834 92.145103 0 0 0
2019 1 -2.065626 -6.357345 92.145103 0 0 0
2020 1 -3.342254 -5.788953 92.145103 0 0 0
2021 1 -6.357345 -2.065626 93.357538 0 0 0
2022 1 -6.647889 -0.698721 93.357538 0 0 0
2038 1 -1.389787 -6.538435 93.357538 0 0 0
2039 1 -3.929055 -5.40788 93.357538 0 0 0
2040 1 -4.967557 -4.472809 93.357538 0 0 0
2537 2 -2.088038 -0.828285 85.04955100000001 0 0 0
2539 2 -0.842638 -1.030985 85.627851 0 0 0
2545 2 -0.488538 -2.919085 84.19055100000001 0 0 0
2546 2 -1.740738 -2.718185 83.61775100000001 0 0 0
2547 2 -0.037038 -2.074185 85.19935100000001 0 0 0
2548 2 -2.546338 -1.670785 84.04825100000001 0 0 0
2549 2 -3.257938 -0.919885 83.12415100000001 0 0 0
2550 2 -1.652038 -3.011885 82.264351 0 0 0
2551 2 -2.351938 -2.249685 81.33705100000002 0 0 0
2552 2 -3.162038 -1.200685 81.76625100000001 0 0 0
2557 2 -0.341738 -3.396185 81.994651 0 0 0
2561 2 -2.180538 -0.584085 79.85615100000001 0 0 0
2562 2 -1.745738 -1.875185 80.145751 0 0 0
2563 2 -0.436238 -2.252685 79.869551 0 0 0
2567 2 -3.063338 -0.168685 80.84335100000001 0 0 0
2609 2 -3.257938 -0.919885 93.42055100000002 0 0 0
2610 2 -1.652038 -3.011885 92.56075100000001 0 0 0
2611 2 -2.351938 -2.249685 91.63345100000001 0 0 0
2612 2 -3.162038 -1.200685 92.06265100000002 0 0 0
2617 2 -0.341738 -3.396185 92.29105100000001 0 0 0
2621 2 -2.180538 -0.584085 90.15255100000002 0 0 0
2622 2 -1.745738 -1.875185 90.44215100000001 0 0 0
2623 2 -0.436238 -2.252685 90.165951 0 0 0
2627 2 -3.063338 -0.168685 91.13975100000002 0 0 0
6194 1 -1.389787 -6.538435 -1.2124350000000277 0 0 1
6195 1 -3.929055 -5.40788 -1.2124350000000277 0 0 1
6196 1 -4.967557 -4.472809 -1.2124350000000277 0 0 1
6197 1 -6.357345 -2.065626 -1.2124350000000277 0 0 1
6198 1 -6.647889 -0.698721 -1.2124350000000277 0 0 1
2057 1 -2.065626 -6.357345 94.56997400000002 0 0 0
2058 1 -3.342254 -5.788953 94.56997400000002 0 0 0
2059 1 -5.40788 -3.929055 94.56997400000002 0 0 0
2060 1 -6.106602 -2.718834 94.56997400000002 0 0 0
2076 1 -1.389787 -6.538435 95.78240900000002 0 0 0
2077 1 -3.929055 -5.40788 95.78240900000002 0 0 0
2078 1 -4.967557 -4.472809 95.78240900000002 0 0 0
2079 1 -6.357345 -2.065626 95.78240900000002 0 0 0
2080 1 -6.647889 -0.698721 95.78240900000002 0 0 0
2095 1 -2.065626 -6.357345 96.99484500000001 0 0 0
2096 1 -3.342254 -5.788953 96.99484500000001 0 0 0
2097 1 -5.40788 -3.929055 96.99484500000001 0 0 0
2098 1 -6.106602 -2.718834 96.99484500000001 0 0 0
2114 1 -1.389787 -6.538435 98.20728000000001 0 0 0
2115 1 -3.929055 -5.40788 98.20728000000001 0 0 0
2116 1 -4.967557 -4.472809 98.20728000000001 0 0 0
2117 1 -6.357345 -2.065626 98.20728000000001 0 0 0
2118 1 -6.647889 -0.698721 98.20728000000001 0 0 0
2133 1 -2.065626 -6.357345 99.41971600000001 0 0 0
2134 1 -3.342254 -5.788953 99.41971600000001 0 0 0
2135 1 -5.40788 -3.929055 99.41971600000001 0 0 0
2136 1 -6.106602 -2.718834 99.41971600000001 0 0 0
2152 1 -1.389787 -6.538435 100.63215100000001 0 0 0
2153 1 -3.929055 -5.40788 100.63215100000001 0 0 0
2154 1 -4.967557 -4.472809 100.63215100000001 0 0 0
2155 1 -6.357345 -2.065626 100.63215100000001 0 0 0
2156 1 -6.647889 -0.698721 100.63215100000001 0 0 0
2171 1 -2.065626 -6.357345 101.84458700000002 0 0 0
2172 1 -3.342254 -5.788953 101.84458700000002 0 0 0
2173 1 -5.40788 -3.929055 101.84458700000002 0 0 0
2174 1 -6.106602 -2.718834 101.84458700000002 0 0 0
2190 1 -1.389787 -6.538435 103.05702300000002 0 0 0
2191 1 -3.929055 -5.40788 103.05702300000002 0 0 0
2192 1 -4.967557 -4.472809 103.05702300000002 0 0 0
2193 1 -6.357345 -2.065626 103.05702300000002 0 0 0
2194 1 -6.647889 -0.698721 103.05702300000002 0 0 0
2209 1 -2.065626 -6.357345 104.26945800000001 0 0 0
2210 1 -3.342254 -5.788953 104.26945800000001 0 0 0
2211 1 -5.40788 -3.929055 104.26945800000001 0 0 0
2212 1 -6.106602 -2.718834 104.26945800000001 0 0 0
2228 1 -1.389787 -6.538435 105.48189400000001 0 0 0
2229 1 -3.929055 -5.40788 105.48189400000001 0 0 0
2230 1 -4.967557 -4.472809 105.48189400000001 0 0 0
2231 1 -6.357345 -2.065626 105.48189400000001 0 0 0
2232 1 -6.647889 -0.698721 105.48189400000001 0 0 0
2247 1 -2.065626 -6.357345 106.69432900000001 0 0 0
2248 1 -3.342254 -5.788953 106.69432900000001 0 0 0
2249 1 -5.40788 -3.929055 106.69432900000001 0 0 0
2250 1 -6.106602 -2.718834 106.69432900000001 0 0 0
2266 1 -1.389787 -6.538435 107.90676500000001 0 0 0
2267 1 -3.929055 -5.40788 107.90676500000001 0 0 0
2268 1 -4.967557 -4.472809 107.90676500000001 0 0 0
2269 1 -6.357345 -2.065626 107.90676500000001 0 0 0
2270 1 -6.647889 -0.698721 107.90676500000001 0 0 0
2285 1 -2.065626 -6.357345 109.1192 0 0 0
2286 1 -3.342254 -5.788953 109.1192 0 0 0
2287 1 -5.40788 -3.929055 109.1192 0 0 0
2288 1 -6.106602 -2.718834 109.1192 0 0 0
2304 1 -1.389787 -6.538435 110.331636 0 0 0
2305 1 -3.929055 -5.40788 110.331636 0 0 0
2306 1 -4.967557 -4.472809 110.331636 0 0 0
2307 1 -6.357345 -2.065626 110.331636 0 0 0
2308 1 -6.647889 -0.698721 110.331636 0 0 0
2323 1 -2.065626 -6.357345 111.54407200000001 0 0 0
2324 1 -3.342254 -5.788953 111.54407200000001 0 0 0
2325 1 -5.40788 -3.929055 111.54407200000001 0 0 0
2326 1 -6.106602 -2.718834 111.54407200000001 0 0 0
2342 1 -1.389787 -6.538435 112.75650700000001 0 0 0
2343 1 -3.929055 -5.40788 112.75650700000001 0 0 0
2344 1 -4.967557 -4.472809 112.75650700000001 0 0 0
2345 1 -6.357345 -2.065626 112.75650700000001 0 0 0
2346 1 -6.647889 -0.698721 112.75650700000001 0 0 0
2361 1 -2.065626 -6.357345 113.96894300000001 0 0 0
2362 1 -3.342254 -5.788953 113.96894300000001 0 0 0
2363 1 -5.40788 -3.929055 113.96894300000001 0 0 0
2364 1 -6.106602 -2.718834 113.96894300000001 0 0 0
2381 1 -3.929055 -5.40788 115.18137800000001 0 0 0
2382 1 -4.967557 -4.472809 115.18137800000001 0 0 0
2383 1 -6.357345 -2.065626 115.18137800000001 0 0 0
2384 1 -6.647889 -0.698721 115.18137800000001 0 0 0
2400 1 -1.389787 -6.538435 115.18137800000001 0 0 0
2401 1 -5.40788 -3.929055 116.39381400000002 0 0 0
2402 1 -6.106602 -2.718834 116.39381400000002 0 0 0
2419 1 -2.065626 -6.357345 116.39381400000002 0 0 0
2420 1 -3.342254 -5.788953 116.39381400000002 0 0 0
2421 1 -6.357345 -2.065626 117.60624900000002 0 0 0
2422 1 -6.647889 -0.698721 117.60624900000002 0 0 0
2438 1 -1.389787 -6.538435 117.60624900000002 0 0 0
2439 1 -3.929055 -5.40788 117.60624900000002 0 0 0
2440 1 -4.967557 -4.472809 117.60624900000002 0 0 0
2457 1 -2.065626 -6.357345 118.81868500000002 0 0 0
2458 1 -3.342254 -5.788953 118.81868500000002 0 0 0
2459 1 -5.40788 -3.929055 118.81868500000002 0 0 0
2460 1 -6.106602 -2.718834 118.81868500000002 0 0 0
2476 1 -1.389787 -6.538435 120.03112100000001 0 0 0
2477 1 -3.929055 -5.40788 120.03112100000001 0 0 0
2478 1 -4.967557 -4.472809 120.03112100000001 0 0 0
2479 1 -6.357345 -2.065626 120.03112100000001 0 0 0
2480 1 -6.647889 -0.698721 120.03112100000001 0 0 0
2495 1 -2.065626 -6.357345 121.24355600000001 0 0 0
2496 1 -3.342254 -5.788953 121.24355600000001 0 0 0
2497 1 -5.40788 -3.929055 121.24355600000001 0 0 0
2498 1 -6.106602 -2.718834 121.24355600000001 0 0 0
2514 1 -1.389787 -6.538435 122.45599200000001 0 0 0
2515 1 -3.929055 -5.40788 122.45599200000001 0 0 0
2516 1 -4.967557 -4.472809 122.45599200000001 0 0 0
2517 1 -6.357345 -2.065626 122.45599200000001 0 0 0
2518 1 -6.647889 -0.698721 122.45599200000001 0 0 0
2597 2 -2.088038 -0.828285 95.34595100000001 0 0 0
2599 2 -0.842638 -1.030985 95.92425100000001 0 0 0
2605 2 -0.488538 -2.919085 94.486951 0 0 0
2606 2 -1.740738 -2.718185 93.914151 0 0 0
2607 2 -0.037038 -2.074185 95.49575100000001 0 0 0
2608 2 -2.546338 -1.670785 94.34465100000001 0 0 0
2657 2 -2.088038 -0.828285 105.642351 0 0 0
2659 2 -0.842638 -1.030985 106.220651 0 0 0
2665 2 -0.488538 -2.919085 104.78335100000001 0 0 0
2666 2 -1.740738 -2.718185 104.21055100000001 0 0 0
2667 2 -0.037038 -2.074185 105.79215100000002 0 0 0
2668 2 -2.546338 -1.670785 104.641051 0 0 0
2669 2 -3.257938 -0.919885 103.71695100000001 0 0 0
2670 2 -1.652038 -3.011885 102.85715100000002 0 0 0
2671 2 -2.351938 -2.249685 101.92985100000001 0 0 0
2672 2 -3.162038 -1.200685 102.35905100000001 0 0 0
2677 2 -0.341738 -3.396185 102.58745100000002 0 0 0
2681 2 -2.180538 -0.584085 100.44895100000001 0 0 0
2682 2 -1.745738 -1.875185 100.73855100000002 0 0 0
2683 2 -0.436238 -2.252685 100.46235100000001 0 0 0
2687 2 -3.063338 -0.168685 101.43615100000001 0 0 0
2717 2 -2.088038 -0.828285 115.93875100000001 0 0 0
2719 2 -0.842638 -1.030985 116.51705100000001 0 0 0
2725 2 -0.488538 -2.919085 115.07975100000002 0 0 0
2726 2 -1.740738 -2.718185 114.50695100000002 0 0 0
2727 2 -0.037038 -2.074185 116.08855100000001 0 0 0
2728 2 -2.546338 -1.670785 114.93745100000001 0 0 0
2729 2 -3.257938 -0.919885 114.01335100000001 0 0 0
2730 2 -1.652038 -3.011885 113.15355100000001 0 0 0
2731 2 -2.351938 -2.249685 112.22625100000002 0 0 0
2732 2 -3.162038 -1.200685 112.65545100000001 0 0 0
2737 2 -0.341738 -3.396185 112.883851 0 0 0
2741 2 -2.180538 -0.584085 110.74535100000001 0 0 0
2742 2 -1.745738 -1.875185 111.034951 0 0 0
2743 2 -0.436238 -2.252685 110.75875100000002 0 0 0
2747 2 -3.063338 -0.168685 111.73255100000002 0 0 0