LAMMPS (2 Aug 2023 - Update 3)
OMP_NUM_THREADS environment is not set. Defaulting to 1 thread. (src/comm.cpp:98)
  using 1 OpenMP thread(s) per MPI task

# 1------general---------------
units                             metal      #单位为lammps 中的metel 类型
dimension                    3          #模拟的维度 三维
boundary                    p p p      #周期边界条件
atom_style                  atomic   #原子类型自动
atom_modify              map array sort 100 2.0
neighbor                    3.0 bin
neigh_modify            every 1 delay 0 check yes
#2 -----global variable-------定义全局变量，方便统一修改；
variable temperature equal 300
variable tstep equal 0.001
variable pressure equal 0
variable thermalstep equal 100
variable dumpstep equal 1000
variable relaxtime equal 0
variable totaltime equal 100000
variable deformrate equal 5e-3
#3 -------model------------
#box tilt large
read_data     1.lmp
Reading data file ...
  orthogonal box = (-100 -100 -2.331251) to (100 100 38.891558)
  3 by 4 by 1 MPI processor grid
  reading atoms ...
  920 atoms
  read_data CPU = 0.004 seconds
replicate 1 1 7
Replication is creating a 1x1x7 = 7 times larger system...
  orthogonal box = (-100 -100 -2.331251) to (100 100 286.22841)
  2 by 2 by 3 MPI processor grid
  6440 atoms
  replicate CPU = 0.001 seconds
write_data l.data
System init for write_data ...
WARNING: Communication cutoff is 0.0. No ghost atoms will be generated. Atoms may get lost. (src/comm_brick.cpp:210)

pair_style hybrid airebo 3.0 airebo 3.0  lj/cut 10
pair_coeff * * airebo 1 CH.airebo C NULL
Reading airebo potential file CH.airebo with DATE: 2011-10-25
pair_coeff * * airebo 2 CH.airebo NULL C
Reading airebo potential file CH.airebo with DATE: 2011-10-25
pair_coeff 1 2 lj/cut 0.00456 3.431

# 5------minimize -----------
min_style      sd
minimize       1.0e-4 1.0e-6 100 1000
Neighbor list info ...
  update: every = 1 steps, delay = 0 steps, check = yes
  max neighbors/atom: 2000, page size: 100000
  master list distance cutoff = 13.2
  ghost atom cutoff = 13.2
  binsize = 6.6, bins = 31 31 44
  5 neighbor lists, perpetual/occasional/extra = 5 0 0
  (1) pair airebo, perpetual, skip from (4)
      attributes: full, newton on, ghost
      pair build: skip/ghost
      stencil: none
      bin: none
  (2) pair airebo, perpetual, skip from (4)
      attributes: full, newton on, ghost
      pair build: skip/ghost
      stencil: none
      bin: none
  (3) pair lj/cut, perpetual, skip from (5)
      attributes: half, newton on, cut 13
      pair build: skip
      stencil: none
      bin: none
  (4) neighbor class addition, perpetual
      attributes: full, newton on, ghost
      pair build: full/bin/ghost
      stencil: full/ghost/bin/3d
      bin: standard
  (5) neighbor class addition, perpetual
      attributes: half, newton on, cut 13
      pair build: half/bin/atomonly/newton
      stencil: half/bin/3d
      bin: standard
Per MPI rank memory allocation (min/avg/max) = 10.16 | 10.19 | 10.54 Mbytes
   Step          Temp          E_pair         E_mol          TotEng         Press     
         0   0             -46692.733      0             -46692.733      322.36972    
         4   0             -46815.726      0             -46815.726      67.774962    
Loop time of 0.0916617 on 12 procs for 4 steps with 6440 atoms

98.1% CPU use with 12 MPI tasks x 1 OpenMP threads

Minimization stats:
  Stopping criterion = energy tolerance
  Energy initial, next-to-last, final = 
     -46692.7334229608  -46812.8951007719  -46815.7262112314
  Force two-norm initial, final = 115.43655 17.576485
  Force max component initial, final = 3.4211508 0.48894053
  Final line search alpha, max atom move = 0.14095332 0.068917792
  Iterations, force evaluations = 4 8

MPI task timing breakdown:
Section |  min time  |  avg time  |  max time  |%varavg| %total
---------------------------------------------------------------
Pair    | 0.068336   | 0.081557   | 0.089819   |   2.5 | 88.98
Neigh   | 0          | 0          | 0          |   0.0 |  0.00
Comm    | 0.0014425  | 0.0096347  | 0.022844   |   7.2 | 10.51
Output  | 0          | 0          | 0          |   0.0 |  0.00
Modify  | 0          | 0          | 0          |   0.0 |  0.00
Other   |            | 0.0004701  |            |       |  0.51

Nlocal:        536.667 ave         578 max         496 min
Histogram: 3 0 0 0 2 4 0 0 0 3
Nghost:        2196.67 ave        2242 max        2150 min
Histogram: 2 1 0 0 3 3 0 0 1 2
Neighs:              0 ave           0 max           0 min
Histogram: 12 0 0 0 0 0 0 0 0 0

Total # of neighbors = 0
Ave neighs/atom = 0
Neighbor list builds = 0
Dangerous builds = 0
#6----define computes------
variable nums equal count(all) #计算原子数目
variable toval equal 13.369*13.369*lz #计算系统总体积，单层石墨烯厚度为0.335nm
variable vol equal ${toval} #体系的初始体积
variable vol equal 51574.3150260957 
variable vatom equal v_vol/v_nums #单个原子体积
compute 1 all stress/atom NULL #计算体系中单原子应力
compute xalls all reduce sum c_1[1]
variable xstress equal (c_xalls)/(v_toval*10000)
compute yalls all reduce sum c_1[2]
variable ystress equal (c_yalls)/(v_toval*10000)
compute zalls all reduce sum c_1[3]
variable zstress equal (c_zalls)/(v_toval*10000)
#7---------relaxation-------------------------
timestep ${tstep}
timestep 0.001
#------------5 温度初始化------------------------------
velocity all create 300 4928459 dist gaussian units box
#------------------------------------------------------
dump   1 all atom 100 all-cy.lammpstrj
#fix    1 all npt temp 300 300  0.1 aniso 0 0  drag 1  #三个方向独立控压
fix  s all npt temp ${temperature} ${temperature} 0.1 y ${pressure} ${pressure} 10 x ${pressure} ${pressure} 10
fix  s all npt temp 300 ${temperature} 0.1 y ${pressure} ${pressure} 10 x ${pressure} ${pressure} 10
fix  s all npt temp 300 300 0.1 y ${pressure} ${pressure} 10 x ${pressure} ${pressure} 10
fix  s all npt temp 300 300 0.1 y 0 ${pressure} 10 x ${pressure} ${pressure} 10
fix  s all npt temp 300 300 0.1 y 0 0 10 x ${pressure} ${pressure} 10
fix  s all npt temp 300 300 0.1 y 0 0 10 x 0 ${pressure} 10
fix  s all npt temp 300 300 0.1 y 0 0 10 x 0 0 10
thermo                1000
thermo_modify       lost ignore
compute  2 all pe/atom
compute  pe all reduce sum c_2
variable PE equal "c_pe"
fix    pe all print 100 "${PE} " file PE.txt screen no
thermo  ${thermalstep}
thermo  100
#thermo_style  custom step pe ke etotal lx ly lz
run   ${relaxtime}
run   0
Per MPI rank memory allocation (min/avg/max) = 10.78 | 10.82 | 11.17 Mbytes
   Step          Temp          E_pair         E_mol          TotEng         Press          Volume    
         4   300           -46815.726      0             -46566.034      90.881123      11542387     
Loop time of 2.74763e-05 on 12 procs for 0 steps with 6440 atoms

67.0% CPU use with 12 MPI tasks x 1 OpenMP threads

MPI task timing breakdown:
Section |  min time  |  avg time  |  max time  |%varavg| %total
---------------------------------------------------------------
Pair    | 0          | 0          | 0          |   0.0 |  0.00
Neigh   | 0          | 0          | 0          |   0.0 |  0.00
Comm    | 0          | 0          | 0          |   0.0 |  0.00
Output  | 0          | 0          | 0          |   0.0 |  0.00
Modify  | 0          | 0          | 0          |   0.0 |  0.00
Other   |            | 2.748e-05  |            |       |100.00

Nlocal:        536.667 ave         539 max         534 min
Histogram: 1 0 1 0 3 0 4 0 2 1
Nghost:        2196.67 ave        2204 max        2191 min
Histogram: 3 2 1 2 0 0 0 0 0 4
Neighs:              0 ave           0 max           0 min
Histogram: 12 0 0 0 0 0 0 0 0 0

Total # of neighbors = 0
Ave neighs/atom = 0
Neighbor list builds = 0
Dangerous builds = 0
#8 -------tension-----------------------------
unfix s
undump  1
unfix  pe
reset_timestep 0
fix avestress all ave/atom 1 ${dumpstep} ${dumpstep} c_1[1] c_1[2] c_1[3] c_1[4] c_1[5] c_1[6]
fix avestress all ave/atom 1 1000 ${dumpstep} c_1[1] c_1[2] c_1[3] c_1[4] c_1[5] c_1[6]
fix avestress all ave/atom 1 1000 1000 c_1[1] c_1[2] c_1[3] c_1[4] c_1[5] c_1[6]

#-----calculation of strain and Cumulative compression--------
variable                tmp equal "lz"
variable                L0 equal ${tmp}
variable                L0 equal 288.559663
variable                strain equal "(lz - v_L0)/v_L0"
variable                Cumulativels equal "(lz - v_L0)/10"
fix Step all print 100 "${strain} ${Cumulativels} ${zstress}" file grapoten.txt screen no

dump 2 all custom ${dumpstep} tension.xyz type x y z f_avestress[1] f_avestress[2] f_avestress[3] f_avestress[4] f_avestress[5] f_avestress[6]
dump 2 all custom 1000 tension.xyz type x y z f_avestress[1] f_avestress[2] f_avestress[3] f_avestress[4] f_avestress[5] f_avestress[6]

fix  1 all npt temp ${temperature} ${temperature} 0.1 y ${pressure} ${pressure} 10 x ${pressure} ${pressure} 10
fix  1 all npt temp 300 ${temperature} 0.1 y ${pressure} ${pressure} 10 x ${pressure} ${pressure} 10
fix  1 all npt temp 300 300 0.1 y ${pressure} ${pressure} 10 x ${pressure} ${pressure} 10
fix  1 all npt temp 300 300 0.1 y 0 ${pressure} 10 x ${pressure} ${pressure} 10
fix  1 all npt temp 300 300 0.1 y 0 0 10 x ${pressure} ${pressure} 10
fix  1 all npt temp 300 300 0.1 y 0 0 10 x 0 ${pressure} 10
fix  1 all npt temp 300 300 0.1 y 0 0 10 x 0 0 10

thermo_style custom step pe ke etotal lx ly lz
WARNING: New thermo_style command, previous thermo_modify settings will be lost (src/output.cpp:903)
fix   2 all deform 1 z erate ${deformrate} remap x units box
fix   2 all deform 1 z erate 0.005 remap x units box
fix   3 all ave/time 2 500 1000 v_xstress v_ystress v_zstress file pressure.out
run   ${totaltime}
run   100000
WARNING: Dump 2 includes no atom IDs and is not sorted by ID. This may complicate post-processing tasks or visualization (src/dump.cpp:221)
Per MPI rank memory allocation (min/avg/max) = 12.28 | 12.32 | 12.67 Mbytes
   Step         PotEng         KinEng         TotEng           Lx             Ly             Lz      
         0  -46815.726      249.69182     -46566.034      200            200            288.55966    
       100  -46669.859      123.79483     -46546.064      200.00422      200.00646      288.70394    
       200  -46679.375      161.00174     -46518.373      199.99963      200.00654      288.84822    
       300  -46652.704      167.40023     -46485.304      199.99965      200.01403      288.9925     
       400  -46634.815      185.31551     -46449.499      199.9956       200.01786      289.13678    
       500  -46621.539      209.15472     -46412.385      199.99251      200.02178      289.28106    
       600  -46606.094      229.70579     -46376.388      199.99498      200.02669      289.42534    
       700  -46594.127      249.86922     -46344.258      199.9907       200.02275      289.56962    
       800  -46576.529      256.5077      -46320.022      199.99752      200.02862      289.7139     
       900  -46576.439      267.21314     -46309.226      199.99156      200.02338      289.85818    
      1000  -46573.603      258.01634     -46315.587      199.99426      200.03136      290.00246    
      1100  -46582.757      252.67105     -46330.086      199.9852       200.03058      290.14674    
      1200  -46584.161      245.93944     -46338.222      199.98415      200.03882      290.29102    
      1300  -46581.35       246.6429      -46334.707      199.97714      200.03832      290.4353     
      1400  -46574.277      252.22711     -46322.05       199.97739      200.04212      290.57958    
      1500  -46564.299      252.64112     -46311.657      199.97329      200.03956      290.72386    
      1600  -46561.03       249.67628     -46311.354      199.97424      200.04222      290.86814    
      1700  -46571.045      251.16138     -46319.884      199.96769      200.03908      291.01242    
      1800  -46565.477      238.51809     -46326.959      199.96721      200.0455       291.1567     
      1900  -46571.896      246.02755     -46325.868      199.95632      200.0424       291.30098    
      2000  -46559.177      241.73543     -46317.442      199.95703      200.05089      291.44526    
      2100  -46560.368      251.80957     -46308.559      199.94608      200.04448      291.58954    
      2200  -46557.375      252.22815     -46305.147      199.94927      200.05012      291.73382    
      2300  -46562.65       253.18169     -46309.468      199.94047      200.04338      291.8781     
      2400  -46563.806      248.56454     -46315.242      199.9408       200.04706      292.02238    
      2500  -46560.319      244.14979     -46316.169      199.93151      200.04434      292.16666    
      2600  -46561.629      251.81549     -46309.814      199.92755      200.04813      292.31094    
      2700  -46553.623      252.71529     -46300.908      199.91874      200.04704      292.45522    
      2800  -46554.486      258.59365     -46295.892      199.91435      200.04823      292.5995     
      2900  -46550.187      251.83303     -46298.354      199.90828      200.04473      292.74378    
      3000  -46551.726      248.55084     -46303.175      199.9049       200.04356      292.88806    
      3100  -46553.977      249.44002     -46304.537      199.89795      200.03871      293.03234    
      3200  -46548.818      249.02891     -46299.789      199.89337      200.03912      293.17662    
      3300  -46543.153      252.19225     -46290.961      199.88358      200.03584      293.3209     
      3400  -46538.613      253.74702     -46284.866      199.87748      200.03609      293.46518    
      3500  -46538.202      252.53263     -46285.669      199.86857      200.03218      293.60946    
      3600  -46538.217      248.47862     -46289.738      199.86186      200.02973      293.75374    
      3700  -46535.686      244.53825     -46291.148      199.85475      200.02528      293.89802    
      3800  -46532.51       245.60466     -46286.906      199.84816      200.01988      294.0423     
      3900  -46523.715      244.84905     -46278.866      199.84139      200.01568      294.18658    
      4000  -46523.272      250.58707     -46272.685      199.83262      200.01149      294.33086    
      4100  -46523.887      251.32703     -46272.56       199.82247      200.00836      294.47514    
      4200  -46525.058      249.29233     -46275.766      199.81314      200.00598      294.61942    
      4300  -46523.834      246.36606     -46277.468      199.80272      200.00044      294.7637     
      4400  -46523.093      249.74429     -46273.348      199.79558      199.99602      294.90798    
      4500  -46516.163      251.16507     -46264.998      199.78715      199.98862      295.05226    
      4600  -46511.617      253.77452     -46257.843      199.77885      199.98258      295.19654    
      4700  -46511.552      256.47299     -46255.079      199.76909      199.97724      295.34082    
      4800  -46506.79       250.08925     -46256.701      199.75783      199.9728       295.48509    
      4900  -46504.484      245.7116      -46258.772      199.7451       199.9681       295.62937    
      5000  -46505.122      248.48953     -46256.632      199.73446      199.96398      295.77365    
      5100  -46502.492      252.96714     -46249.525      199.72228      199.95587      295.91793    
      5200  -46496.307      254.92532     -46241.381      199.714        199.94999      296.06221    
      5300  -46491.526      254.23172     -46237.294      199.70204      199.93999      296.20649    
      5400  -46488.154      250.25257     -46237.902      199.69266      199.93414      296.35077    
      5500  -46489.051      249.11045     -46239.941      199.67849      199.92568      296.49505    
      5600  -46483.726      245.08844     -46238.638      199.666        199.92181      296.63933    
      5700  -46481.538      249.43653     -46232.101      199.64932      199.91559      296.78361    
      5800  -46471.827      248.35677     -46223.47       199.63636      199.91044      296.92789    
      5900  -46473.157      255.43155     -46217.726      199.62359      199.90047      297.07217    
      6000  -46465.17       248.67935     -46216.49       199.61375      199.89083      297.21645    
      6100  -46466.775      248.55542     -46218.219      199.60055      199.88011      297.36073    
      6200  -46468.47       250.58625     -46217.884      199.58744      199.87312      297.50501    
      6300  -46459.747      247.34706     -46212.4        199.56976      199.86602      297.64929    
      6400  -46453.741      249.94024     -46203.801      199.55271      199.86192      297.79357    
      6500  -46449.325      252.74534     -46196.579      199.53506      199.8544       297.93785    
      6600  -46444.163      251.02828     -46193.134      199.52067      199.84546      298.08213    
      6700  -46443.426      250.6091      -46192.817      199.50689      199.83287      298.22641    
      6800  -46438.053      245.56464     -46192.489      199.494        199.8211       298.37069    
      6900  -46436.12       247.63873     -46188.481      199.47701      199.80956      298.51497    
      7000  -46434.34       253.06887     -46181.271      199.459        199.80151      298.65925    
      7100  -46425.895      251.502       -46174.393      199.43823      199.793        298.80353    
      7200  -46423.361      253.53067     -46169.831      199.41879      199.78403      298.94781    
      7300  -46417.809      249.31639     -46168.492      199.39977      199.77238      299.09209    
      7400  -46417.369      249.32893     -46168.04       199.38261      199.75911      299.23637    
      7500  -46414.501      249.3942      -46165.107      199.36563      199.7443       299.38065    
      7600  -46410.336      251.23981     -46159.096      199.34743      199.72996      299.52493    
      7700  -46401.089      250.08194     -46151.007      199.32752      199.71738      299.66921    
      7800  -46400.386      256.31084     -46144.075      199.30497      199.70476      299.81349    
      7900  -46390.973      249.80848     -46141.164      199.28256      199.69381      299.95777    
      8000  -46392.225      251.05425     -46141.17       199.25859      199.67961      300.10205    
      8100  -46387.324      248.22626     -46139.097      199.23789      199.66577      300.24633    
      8200  -46382.341      249.07563     -46133.266      199.21586      199.6479       300.39061    
      8300  -46367.093      243.59022     -46123.503      199.19581      199.63116      300.53489    
      8400  -46368.199      251.54245     -46116.656      199.17213      199.61299      300.67917    
      8500  -46362.433      247.98122     -46114.451      199.14822      199.5983       300.82345    
      8600  -46361.976      249.58959     -46112.386      199.12072      199.58125      300.96773    
      8700  -46356.764      248.94327     -46107.821      199.09459      199.5663       301.11201    
      8800  -46350.932      248.31138     -46102.621      199.06674      199.54792      301.25629    
      8900  -46342.173      244.98119     -46097.192      199.0426       199.52899      301.40057    
      9000  -46343.652      249.95572     -46093.696      199.01685      199.50598      301.54485    
      9100  -46340.256      247.78283     -46092.473      198.99245      199.48544      301.68913    
      9200  -46334.736      246.0916      -46088.645      198.96287      199.46478      301.83341    
      9300  -46327.716      248.74585     -46078.97       198.93262      199.44756      301.97769    
      9400  -46323.051      253.59616     -46069.454      198.90029      199.42839      302.12197    
      9500  -46314.924      249.54186     -46065.382      198.8701       199.40929      302.26625    
      9600  -46312.58       249.24585     -46063.334      198.83979      199.38589      302.41053    
      9700  -46310.215      249.4024      -46060.813      198.81135      199.36231      302.55481    
      9800  -46306.126      249.81958     -46056.307      198.78118      199.33756      302.69909    
      9900  -46299.151      250.78849     -46048.362      198.74914      199.3148       302.84337    
     10000  -46290.673      251.6288      -46039.044      198.71399      199.29309      302.98765    
     10100  -46286.48       253.84939     -46032.631      198.67763      199.27265      303.13193    
     10200  -46282.271      251.92606     -46030.345      198.64129      199.24939      303.27621    
     10300  -46278.601      248.86884     -46029.732      198.60768      199.22349      303.42049    
     10400  -46273.634      249.37299     -46024.261      198.57447      199.19503      303.56477    
     10500  -46267.367      251.54088     -46015.826      198.54029      199.16693      303.70905    
     10600  -46259.382      250.55647     -46008.825      198.50223      199.14098      303.85333    
     10700  -46256.067      252.77292     -46003.294      198.46106      199.11721      303.9976     
     10800  -46242.082      244.0294      -45998.053      198.41938      199.09254      304.14188    
     10900  -46243.932      251.33509     -45992.597      198.37931      199.06472      304.28616    
     11000  -46237.162      248.84321     -45988.318      198.34094      199.03413      304.43044    
     11100  -46228.12       244.61586     -45983.504      198.30252      199.00272      304.57472    
     11200  -46223.947      249.03339     -45974.913      198.26129      198.97188      304.719      
     11300  -46213.724      249.01238     -45964.711      198.21753      198.94327      304.86328    
     11400  -46209.529      252.1173      -45957.412      198.17186      198.9147       305.00756    
     11500  -46206.858      250.05341     -45956.805      198.12623      198.88372      305.15184    
     11600  -46200.521      245.15805     -45955.363      198.08275      198.8506       305.29612    
     11700  -46194.263      247.21713     -45947.046      198.03937      198.81483      305.4404     
     11800  -46183.891      247.43842     -45936.453      197.99441      198.78017      305.58468    
     11900  -46176.345      247.74767     -45928.597      197.94599      198.74631      305.72896    
     12000  -46173.799      250.23309     -45923.566      197.89673      198.7131       305.87324    
     12100  -46169.597      249.72083     -45919.876      197.84733      198.67746      306.01752    
     12200  -46161.573      247.24995     -45914.323      197.79979      198.64046      306.1618     
     12300  -46156.652      249.34775     -45907.304      197.75231      198.59999      306.30608    
     12400  -46148.96       249.24897     -45899.711      197.70463      198.56093      306.45036    
     12500  -46144.893      252.8061      -45892.087      197.65185      198.52341      306.59464    
     12600  -46134.767      248.85197     -45885.915      197.59762      198.48877      306.73892    
     12700  -46135.315      251.76286     -45883.552      197.54245      198.45219      306.8832     
     12800  -46127.318      247.82706     -45879.491      197.48981      198.41342      307.02748    
     12900  -46119.72       250.04583     -45869.674      197.43928      198.37095      307.17176    
     13000  -46114.179      256.57479     -45857.604      197.38964      198.3274       307.31604    
     13100  -46105.283      253.85572     -45851.428      197.33713      198.2851       307.46032    
     13200  -46098.467      251.48774     -45846.979      197.28075      198.24707      307.6046     
     13300  -46093.241      250.70127     -45842.54       197.22155      198.20961      307.74888    
     13400  -46084.8        247.29876     -45837.502      197.16373      198.17163      307.89316    
     13500  -46080.71       248.47612     -45832.234      197.10776      198.12997      308.03744    
     13600  -46071.399      248.4384      -45822.961      197.05414      198.08596      308.18172    
     13700  -46062.106      251.0289      -45811.077      197.00054      198.04135      308.326      
     13800  -46055.272      252.84787     -45802.424      196.94513      197.99842      308.47028    
     13900  -46048.573      250.67516     -45797.898      196.88704      197.95733      308.61456    
     14000  -46043.892      246.8194      -45797.072      196.82816      197.91714      308.75884    
     14100  -46039.207      248.93185     -45790.275      196.76973      197.87613      308.90312    
     14200  -46026.549      246.81936     -45779.73       196.71241      197.8338       309.0474     
     14300  -46020.317      250.4258      -45769.891      196.65527      197.7914       309.19168    
     14400  -46010.945      249.84274     -45761.102      196.59727      197.74925      309.33596    
     14500  -46003.853      251.55858     -45752.294      196.54017      197.70734      309.48024    
     14600  -45991.888      250.49855     -45741.39       196.4828       197.66378      309.62452    
     14700  -45986.817      253.47748     -45733.34       196.42723      197.62053      309.7688     
     14800  -45979.249      247.87765     -45731.372      196.3698       197.57626      309.91308    
     14900  -45976.842      249.5507      -45727.291      196.31269      197.53503      310.05736    
     15000  -45966.35       247.01288     -45719.337      196.25261      197.49312      310.20164    
     15100  -45957.496      248.72627     -45708.77       196.19465      197.45363      310.34592    
     15200  -45947.1        252.23217     -45694.867      196.13617      197.41005      310.4902     
     15300  -45939.714      253.07878     -45686.635      196.08273      197.36658      310.63448    
     15400  -45935.505      251.49021     -45684.015      196.02828      197.32003      310.77876    
     15500  -45926.862      248.72053     -45678.142      195.97563      197.27597      310.92304    
     15600  -45921.53       248.63955     -45672.89       195.9192       197.23328      311.06732    
     15700  -45917.66       250.36787     -45667.292      195.86215      197.19462      311.2116     
     15800  -45909.417      250.03587     -45659.381      195.80425      197.15484      311.35588    
     15900  -45895.641      248.7083      -45646.933      195.75039      197.11491      311.50016    
     16000  -45888.979      253.96901     -45635.01       195.69809      197.07131      311.64444    
     16100  -45883.291      255.49411     -45627.797      195.64836      197.02846      311.78872    
     16200  -45873.691      248.41089     -45625.28       195.59686      196.98589      311.933      
     16300  -45868.113      248.88728     -45619.225      195.54454      196.9473       312.07728    
     16400  -45859.206      249.17999     -45610.026      195.49035      196.90968      312.22156    
     16500  -45848.824      250.01105     -45598.813      195.43897      196.87234      312.36584    
     16600  -45841.772      253.44995     -45588.322      195.38936      196.83256      312.51012    
     16700  -45835.394      253.94756     -45581.447      195.3415       196.79357      312.65439    
     16800  -45828.217      247.90645     -45580.311      195.2926       196.75505      312.79867    
     16900  -45820.386      247.78638     -45572.6        195.24415      196.71921      312.94295    
     17000  -45811.839      251.55976     -45560.28       195.19528      196.68333      313.08723    
     17100  -45797.802      248.52314     -45549.279      195.14891      196.64784      313.23151    
     17200  -45788.817      247.84727     -45540.97       195.10398      196.61075      313.37579    
     17300  -45784.772      250.91557     -45533.856      195.0599       196.57497      313.52007    
     17400  -45779.119      252.7676      -45526.352      195.01437      196.5411       313.66435    
     17500  -45766.289      248.34044     -45517.949      194.96855      196.50982      313.80863    
     17600  -45759.964      252.62888     -45507.335      194.92234      196.47884      313.95291    
     17700  -45744.871      250.92825     -45493.942      194.8786       196.44717      314.09719    
     17800  -45737.725      254.69946     -45483.026      194.83814      196.41329      314.24147    
     17900  -45731.139      250.76314     -45480.375      194.79915      196.37747      314.38575    
     18000  -45723.175      247.57203     -45475.603      194.75967      196.34508      314.53003    
     18100  -45714.227      247.78082     -45466.446      194.71696      196.3147       314.67431    
     18200  -45707.406      251.76664     -45455.639      194.67499      196.28691      314.81859    
     18300  -45697.555      254.35782     -45443.198      194.63358      196.25703      314.96287    
     18400  -45685.694      254.4558      -45431.238      194.59665      196.22605      315.10715    
     18500  -45678.558      253.3867      -45425.172      194.56111      196.19233      315.25143    
     18600  -45670.052      247.1672      -45422.885      194.52635      196.1609       315.39571    
     18700  -45664.33       249.30837     -45415.022      194.48806      196.13141      315.53999    
     18800  -45653.985      249.87454     -45404.11       194.45055      196.10565      315.68427    
     18900  -45642.967      252.74488     -45390.222      194.41239      196.07775      315.82855    
     19000  -45630.747      251.1267      -45379.62       194.37824      196.04995      315.97283    
     19100  -45626.833      249.85763     -45376.975      194.34504      196.01923      316.11711    
     19200  -45619.822      247.97548     -45371.846      194.3141       195.99003      316.26139    
     19300  -45612.923      252.22664     -45360.696      194.28039      195.96143      316.40567    
     19400  -45597.945      250.2888      -45347.656      194.24701      195.93689      316.54995    
     19500  -45588.656      252.65193     -45336.004      194.21168      195.9114       316.69423    
     19600  -45582.343      253.08037     -45329.263      194.17933      195.88708      316.83851    
     19700  -45573.694      246.52781     -45327.167      194.14795      195.85982      316.98279    
     19800  -45565.348      247.86748     -45317.48       194.11896      195.83406      317.12707    
     19900  -45555.188      250.48463     -45304.703      194.088        195.80778      317.27135    
     20000  -45543.995      251.24495     -45292.75       194.05844      195.78443      317.41563    
     20100  -45536.564      252.43247     -45284.132      194.02689      195.76095      317.55991    
     20200  -45525.37       245.33535     -45280.035      193.99791      195.73845      317.70419    
     20300  -45520.544      244.43189     -45276.112      193.96922      195.7136       317.84847    
     20400  -45507.189      244.35523     -45262.834      193.94241      195.69065      317.99275    
     20500  -45496.548      247.79766     -45248.75       193.91292      195.66823      318.13703    
     20600  -45485.322      249.27692     -45236.045      193.88365      195.64861      318.28131    
     20700  -45476.489      251.31214     -45225.176      193.85404      195.62738      318.42559    
     20800  -45467.104      249.47274     -45217.631      193.82793      195.60544      318.56987    
     20900  -45462.841      248.52797     -45214.313      193.80271      195.5807       318.71415    
     21000  -45453.477      248.89718     -45204.58       193.77872      195.55685      318.85843    
     21100  -45438.836      248.9197      -45189.916      193.75252      195.53471      319.00271    
     21200  -45426.764      248.49569     -45178.268      193.72411      195.51556      319.14699    
     21300  -45419.305      251.4696      -45167.835      193.69457      195.49718      319.29127    
     21400  -45408.654      250.85907     -45157.795      193.66763      195.47742      319.43555    
     21500  -45399.895      250.42981     -45149.465      193.64305      195.45386      319.57983    
     21600  -45389.499      245.97927     -45143.52       193.62146      195.43055      319.72411    
     21700  -45381.317      247.37868     -45133.938      193.59696      195.40641      319.86839    
     21800  -45366.659      248.49629     -45118.163      193.57297      195.38679      320.01267    
     21900  -45360.695      255.12121     -45105.574      193.54552      195.3655       320.15695    
     22000  -45348.749      251.87587     -45096.874      193.52113      195.34638      320.30123    
     22100  -45340.693      250.17597     -45090.517      193.49497      195.32489      320.44551    
     22200  -45333.402      249.5518      -45083.85       193.47173      195.30511      320.58979    
     22300  -45319.273      246.51428     -45072.759      193.44682      195.28263      320.73407    
     22400  -45308.989      253.33581     -45055.654      193.42326      195.26264      320.87835    
     22500  -45295.918      251.31323     -45044.605      193.39915      195.24147      321.02263    
     22600  -45288.732      250.00649     -45038.726      193.376        195.22017      321.1669     
     22700  -45280.954      248.2927      -45032.661      193.35307      195.19863      321.31118    
     22800  -45271.541      248.86268     -45022.678      193.33055      195.17787      321.45546    
     22900  -45259.523      251.2069      -45008.316      193.30712      195.15766      321.59974    
     23000  -45245.777      252.99857     -44992.779      193.28304      195.13878      321.74402    
     23100  -45238.19       254.51663     -44983.674      193.25839      195.1205       321.8883     
     23200  -45228.853      252.27682     -44976.577      193.23371      195.10228      322.03258    
     23300  -45217.937      248.85886     -44969.078      193.21019      195.08397      322.17686    
     23400  -45208.582      248.9219      -44959.66       193.18769      195.0633       322.32114    
     23500  -45193.928      248.61348     -44945.315      193.16697      195.04331      322.46542    
     23600  -45181.965      252.12478     -44929.84       193.14407      195.02267      322.6097     
     23700  -45173.412      252.35084     -44921.061      193.12148      195.00472      322.75398    
     23800  -45164.348      248.82424     -44915.524      193.09576      194.98624      322.89826    
     23900  -45152.465      245.76397     -44906.702      193.0725       194.96901      323.04254    
     24000  -45142.59       247.6477      -44894.942      193.04975      194.94808      323.18682    
     24100  -45131.804      249.39125     -44882.413      193.02914      194.92722      323.3311     
     24200  -45120.614      250.14493     -44870.469      193.00696      194.90576      323.47538    
     24300  -45108.988      249.23386     -44859.754      192.98413      194.88711      323.61966    
     24400  -45100.474      248.30424     -44852.17       192.9582       194.86894      323.76394    
     24500  -45089.689      244.8025      -44844.887      192.93324      194.8518       323.90822    
     24600  -45083.214      251.04004     -44832.174      192.90917      194.83203      324.0525     
     24700  -45066.637      250.17875     -44816.459      192.88837      194.81065      324.19678    
     24800  -45056.045      252.545       -44803.5        192.8675       194.78705      324.34106    
     24900  -45045.717      251.62554     -44794.091      192.84657      194.76525      324.48534    
     25000  -45035.951      247.60748     -44788.343      192.82315      194.74391      324.62962    
     25100  -45028.793      245.86453     -44782.929      192.79936      194.72448      324.7739     
     25200  -45017.64       247.98505     -44769.655      192.7736       194.70543      324.91818    
     25300  -45003.291      248.33852     -44754.952      192.74892      194.68678      325.06246    
     25400  -44990.858      250.36498     -44740.493      192.72525      194.66592      325.20674    
     25500  -44981.366      252.62196     -44728.744      192.70269      194.64468      325.35102    
     25600  -44969.286      248.7819      -44720.504      192.67992      194.62249      325.4953     
     25700  -44962.209      245.85822     -44716.351      192.65779      194.60106      325.63958    
     25800  -44952.356      247.41257     -44704.944      192.63472      194.57967      325.78386    
     25900  -44938.654      248.71334     -44689.941      192.61225      194.55898      325.92814    
     26000  -44925.977      249.90372     -44676.073      192.58789      194.53841      326.07242    
     26100  -44914.079      249.95498     -44664.124      192.56425      194.51969      326.2167     
     26200  -44903.852      250.80795     -44653.044      192.53877      194.49975      326.36098    
     26300  -44895.221      250.11257     -44645.108      192.51523      194.48085      326.50526    
     26400  -44884.701      246.43211     -44638.269      192.49102      194.45905      326.64954    
     26500  -44869.468      244.84386     -44624.624      192.46894      194.43867      326.79382    
     26600  -44855.5        247.51115     -44607.989      192.44474      194.41732      326.9381     
     26700  -44849.39       253.80645     -44595.584      192.42029      194.39801      327.08238    
     26800  -44834.879      250.47597     -44584.403      192.39443      194.37831      327.22666    
     26900  -44825.896      250.34648     -44575.549      192.37006      194.35816      327.37094    
     27000  -44816.251      247.01385     -44569.237      192.3465       194.33554      327.51522    
     27100  -44800.882      243.37245     -44557.509      192.32435      194.31229      327.6595     
     27200  -44789.106      250.04006     -44539.066      192.30155      194.28941      327.80378    
     27300  -44775.825      249.8033      -44526.022      192.2773       194.26806      327.94806    
     27400  -44765.121      249.88648     -44515.235      192.25134      194.24725      328.09234    
     27500  -44756.173      250.75516     -44505.418      192.22498      194.22687      328.23662    
     27600  -44742.86       247.89036     -44494.97       192.1993       194.20578      328.3809     
     27700  -44728.778      246.74767     -44482.03       192.17415      194.1833       328.52518    
     27800  -44718.601      251.85421     -44466.747      192.1497       194.16031      328.66946    
     27900  -44706.443      253.48794     -44452.955      192.12514      194.1366       328.81374    
     28000  -44693.549      249.30801     -44444.241      192.10089      194.11294      328.95802    
     28100  -44687.863      248.94827     -44438.915      192.07607      194.08921      329.1023     
     28200  -44678.027      250.91813     -44427.109      192.05088      194.0655       329.24658    
     28300  -44660.006      247.75907     -44412.247      192.02584      194.04199      329.39086    
     28400  -44646.405      249.80042     -44396.604      191.9998       194.01931      329.53514    
     28500  -44637.149      252.05412     -44385.095      191.97292      193.99768      329.67941    
     28600  -44628.475      253.22914     -44375.246      191.94612      193.97529      329.82369    
     28700  -44615.474      250.42666     -44365.047      191.92067      193.95189      329.96797    
     28800  -44604.552      249.05049     -44355.501      191.89606      193.92769      330.11225    
     28900  -44595.421      249.79729     -44345.624      191.87084      193.90399      330.25653    
     29000  -44583.246      249.132       -44334.114      191.84458      193.88098      330.40081    
     29100  -44567.476      250.08112     -44317.394      191.81748      193.85959      330.54509    
     29200  -44553.105      250.95478     -44302.15       191.78994      193.8376       330.68937    
     29300  -44541.788      251.6381      -44290.15       191.76476      193.81403      330.83365    
     29400  -44532.097      248.72777     -44283.369      191.74026      193.78812      330.97793    
     29500  -44520.435      245.04222     -44275.393      191.71558      193.76333      331.12221    
     29600  -44506.304      244.87828     -44261.425      191.68888      193.73979      331.26649    
     29700  -44494.147      247.24979     -44246.897      191.6608       193.7177       331.41077    
     29800  -44480.919      248.66015     -44232.259      191.63226      193.69558      331.55505    
     29900  -44466.434      248.1775      -44218.257      191.60472      193.6724       331.69933    
     30000  -44456.975      253.06011     -44203.915      191.57803      193.64851      331.84361    
     30100  -44440.061      250.96485     -44189.096      191.55097      193.62314      331.98789    
     30200  -44431.298      251.62326     -44179.674      191.52497      193.59845      332.13217    
     30300  -44423.272      249.8629      -44173.41       191.49791      193.57268      332.27645    
     30400  -44410.824      248.73765     -44162.086      191.4717       193.54747      332.42073    
     30500  -44399.69       252.2071      -44147.483      191.44493      193.52085      332.56501    
     30600  -44383.643      253.47133     -44130.172      191.4186       193.49427      332.70929    
     30700  -44371.164      255.24062     -44115.923      191.39085      193.46894      332.85357    
     30800  -44360.39       248.18776     -44112.203      191.36136      193.44496      332.99785    
     30900  -44350.427      247.84141     -44102.586      191.33143      193.42133      333.14213    
     31000  -44335.38       247.28051     -44088.099      191.30228      193.39605      333.28641    
     31100  -44321.373      249.79968     -44071.574      191.27613      193.36914      333.43069    
     31200  -44306.65       248.54492     -44058.105      191.24996      193.34002      333.57497    
     31300  -44298.445      248.67201     -44049.773      191.2239       193.31392      333.71925    
     31400  -44290.813      247.7159      -44043.097      191.1937       193.28716      333.86353    
     31500  -44278.69       248.40909     -44030.281      191.16558      193.26416      334.00781    
     31600  -44263.156      248.14123     -44015.015      191.13494      193.23793      334.15209    
     31700  -44246.436      246.62657     -43999.81       191.10876      193.21333      334.29637    
     31800  -44236.743      251.73857     -43985.005      191.08016      193.18418      334.44065    
     31900  -44220.761      249.48194     -43971.279      191.05451      193.15933      334.58493    
     32000  -44212.771      253.15566     -43959.615      191.02393      193.1323       334.72921    
     32100  -44200.232      248.70502     -43951.527      190.99493      193.10998      334.87349    
     32200  -44187.381      246.24847     -43941.133      190.96307      193.08404      335.01777    
     32300  -44175.708      250.03475     -43925.673      190.93527      193.06041      335.16205    
     32400  -44157.034      248.75349     -43908.281      190.90518      193.03274      335.30633    
     32500  -44147.611      252.23562     -43895.376      190.8781       193.00736      335.45061    
     32600  -44137.016      252.05652     -43884.96       190.84869      192.97935      335.59489    
     32700  -44123.311      249.32609     -43873.985      190.82157      192.95324      335.73917    
     32800  -44109.534      248.25705     -43861.276      190.79269      192.92491      335.88345    
     32900  -44097.582      249.46029     -43848.122      190.76511      192.89794      336.02773    
     33000  -44083.623      250.23535     -43833.387      190.73552      192.87081      336.17201    
     33100  -44070.519      255.03537     -43815.484      190.70502      192.84558      336.31629    
     33200  -44053.548      254.42806     -43799.12       190.6733       192.8211       336.46057    
     33300  -44042.971      250.81452     -43792.156      190.64205      192.79446      336.60485    
     33400  -44036.558      253.55668     -43783.001      190.61425      192.76654      336.74913    
     33500  -44021.69       250.09544     -43771.594      190.58625      192.73586      336.89341    
     33600  -44008.194      248.44163     -43759.753      190.55905      192.70788      337.03769    
     33700  -43994.602      248.76716     -43745.835      190.52776      192.67859      337.18197    
     33800  -43978.92       249.5805      -43729.339      190.49946      192.6527       337.32625    
     33900  -43967.277      253.13577     -43714.141      190.46798      192.62364      337.47053    
     34000  -43955.564      250.69331     -43704.87       190.4401       192.59719      337.61481    
     34100  -43946.076      248.01546     -43698.06       190.4094       192.56684      337.75909    
     34200  -43931.304      246.36775     -43684.936      190.38191      192.54044      337.90337    
     34300  -43916.799      248.93646     -43667.863      190.35067      192.51203      338.04765    
     34400  -43901.818      248.83368     -43652.985      190.32116      192.48636      338.19193    
     34500  -43894.498      253.59806     -43640.9        190.28968      192.45952      338.3362     
     34600  -43878.741      249.59091     -43629.15       190.25907      192.43371      338.48048    
     34700  -43865.697      249.24979     -43616.447      190.22927      192.40711      338.62476    
     34800  -43852.085      249.03686     -43603.049      190.19967      192.37898      338.76904    
     34900  -43837.789      248.75129     -43589.038      190.17193      192.35112      338.91332    
     35000  -43820.031      247.27986     -43572.751      190.14303      192.3217       339.0576     
     35100  -43805.225      248.54407     -43556.681      190.11565      192.29453      339.20188    
     35200  -43799.195      251.60115     -43547.594      190.08493      192.26592      339.34616    
     35300  -43787.925      247.87483     -43540.05       190.05622      192.24003      339.49044    
     35400  -43777.521      251.17923     -43526.342      190.02499      192.21168      339.63472    
     35500  -43760.382      249.83687     -43510.545      189.99551      192.18737      339.779      
     35600  -43745.084      251.47984     -43493.604      189.9628       192.1607       339.92328    
     35700  -43730.76       254.6613      -43476.098      189.93308      192.13518      340.06756    
     35800  -43715.167      252.03403     -43463.133      189.90286      192.10669      340.21184    
     35900  -43706.55       248.549       -43458.001      189.87485      192.07825      340.35612    
     36000  -43696.561      248.53895     -43448.022      189.84678      192.0482       340.5004     
     36100  -43683.517      247.80568     -43435.712      189.81845      192.0188       340.64468    
     36200  -43670.536      251.83495     -43418.701      189.78957      191.9909       340.78896    
     36300  -43654.804      252.76906     -43402.035      189.75875      191.96294      340.93324    
     36400  -43643.215      253.07347     -43390.142      189.72914      191.93672      341.07752    
     36500  -43629.576      247.55061     -43382.025      189.69776      191.90751      341.2218     
     36600  -43617.925      245.76766     -43372.157      189.67035      191.88038      341.36608    
     36700  -43605.32       247.35935     -43357.961      189.64085      191.84945      341.51036    
     36800  -43591.863      250.37977     -43341.483      189.61382      191.82241      341.65464    
     36900  -43574.982      250.1299      -43324.852      189.58217      191.79384      341.79892    
     37000  -43561.213      250.08124     -43311.131      189.5521       191.7706       341.9432     
     37100  -43552.958      250.85369     -43302.104      189.51977      191.74352      342.08748    
     37200  -43541.083      247.20955     -43293.873      189.49236      191.71746      342.23176    
     37300  -43529.453      250.96331     -43278.489      189.46467      191.68634      342.37604    
     37400  -43513.161      251.74553     -43261.415      189.43961      191.65783      342.52032    
     37500  -43496.492      249.9         -43246.592      189.41126      191.62912      342.6646     
     37600  -43484.671      252.65347     -43232.018      189.38242      191.60358      342.80888    
     37700  -43465.629      247.06877     -43218.56       189.35187      191.57795      342.95316    
     37800  -43456.891      248.94163     -43207.95       189.32181      191.55317      343.09744    
     37900  -43445.261      247.59982     -43197.661      189.29276      191.52755      343.24172    
     38000  -43429.993      246.63391     -43183.359      189.26383      191.50082      343.386      
     38100  -43415.962      251.76622     -43164.196      189.23584      191.47499      343.53028    
     38200  -43400.434      251.89447     -43148.539      189.20667      191.44835      343.67456    
     38300  -43388.22       251.58473     -43136.636      189.17869      191.42286      343.81884    
     38400  -43375.28       249.24148     -43126.039      189.1507       191.39514      343.96312    
     38500  -43365.111      247.95962     -43117.152      189.12429      191.36743      344.1074     
     38600  -43353.134      243.37627     -43109.758      189.09741      191.33892      344.25168    
     38700  -43336.647      244.71968     -43091.927      189.06971      191.31276      344.39596    
     38800  -43322.695      248.45351     -43074.241      189.03988      191.28761      344.54024    
     38900  -43306.07       249.25253     -43056.817      189.01079      191.26209      344.68452    
     39000  -43294.087      253.35046     -43040.737      188.98352      191.2347       344.8288     
     39100  -43278.648      250.93054     -43027.718      188.95779      191.20589      344.97308    
     39200  -43267.441      247.72829     -43019.713      188.93167      191.17815      345.11736    
     39300  -43256.17       246.58893     -43009.581      188.90248      191.15165      345.26164    
     39400  -43241.895      248.30342     -42993.592      188.87245      191.12844      345.40592    
     39500  -43227.731      250.71016     -42977.021      188.84269      191.10366      345.5502     
     39600  -43215.076      251.88871     -42963.187      188.81668      191.0775       345.69448    
     39700  -43199.557      249.48462     -42950.073      188.79171      191.04783      345.83876    
     39800  -43186.314      249.57522     -42936.739      188.76812      191.01959      345.98304    
     39900  -43174.594      252.07672     -42922.517      188.74185      190.9924       346.12732    
     40000  -43158.459      251.50609     -42906.953      188.71492      190.96836      346.2716     
     40100  -43138.933      247.25823     -42891.675      188.68598      190.94394      346.41588    
     40200  -43127.306      248.54663     -42878.759      188.65858      190.92073      346.56016    
     40300  -43116.469      246.13378     -42870.335      188.63084      190.89593      346.70444    
     40400  -43105.255      246.4397      -42858.816      188.6045       190.87184      346.84871    
     40500  -43090.346      247.9136      -42842.433      188.57815      190.84694      346.99299    
     40600  -43073.01       251.45208     -42821.558      188.55222      190.82204      347.13727    
     40700  -43058.136      249.55384     -42808.583      188.52632      190.79778      347.28155    
     40800  -43046.81       248.24631     -42798.564      188.50028      190.77322      347.42583    
     40900  -43033.837      246.57478     -42787.262      188.47481      190.74935      347.57011    
     41000  -43021.23       249.10941     -42772.12       188.44849      190.72361      347.71439    
     41100  -43002.19       250.62551     -42751.565      188.42458      190.69982      347.85867    
     41200  -42990.616      253.16549     -42737.451      188.39792      190.674        348.00295    
     41300  -42980.717      253.08686     -42727.63       188.3731       190.65176      348.14723    
     41400  -42967.334      250.99669     -42716.338      188.34581      190.6262       348.29151    
     41500  -42948.5        246.24561     -42702.254      188.32207      190.60249      348.43579    
     41600  -42941.218      254.20537     -42687.012      188.29688      190.57565      348.58007    
     41700  -42920.53       249.06819     -42671.462      188.27335      190.55204      348.72435    
     41800  -42906.219      253.94331     -42652.276      188.24624      190.52726      348.86863    
     41900  -42890.15       253.76751     -42636.382      188.21984      190.5059       349.01291    
     42000  -42878.454      249.53939     -42628.915      188.19217      190.4826       349.15719    
     42100  -42868.003      249.86083     -42618.142      188.1682       190.45837      349.30147    
     42200  -42854.898      248.71227     -42606.186      188.14545      190.43137      349.44575    
     42300  -42841.896      249.15359     -42592.742      188.12335      190.40494      349.59003    
     42400  -42826.586      249.91449     -42576.671      188.1          190.37985      349.73431    
     42500  -42810.41       252.05325     -42558.357      188.07521      190.35676      349.87859    
     42600  -42794.373      250.2857      -42544.087      188.05004      190.33453      350.02287    
     42700  -42786.888      249.82236     -42537.065      188.02454      190.31144      350.16715    
     42800  -42772.346      247.49056     -42524.856      188.00093      190.28943      350.31143    
     42900  -42757.973      249.16685     -42508.806      187.97591      190.26621      350.45571    
     43000  -42741.745      250.43671     -42491.308      187.95214      190.24482      350.59999    
     43100  -42727.768      252.77215     -42474.996      187.92747      190.22262      350.74427    
     43200  -42713.119      251.82147     -42461.298      187.90408      190.19934      350.88855    
     43300  -42700.937      248.20951     -42452.728      187.88205      190.1768       351.03283    
     43400  -42688.995      247.58534     -42441.41       187.85811      190.15331      351.17711    
     43500  -42672.5        245.89327     -42426.607      187.83546      190.13242      351.32139    
     43600  -42657.868      251.14755     -42406.72       187.81055      190.11004      351.46567    
     43700  -42639.423      248.3526      -42391.07       187.78818      190.08923      351.60995    
     43800  -42633.637      254.26432     -42379.373      187.76472      190.0657       351.75423    
     43900  -42614.318      246.55919     -42367.759      187.74326      190.04372      351.89851    
     44000  -42601.943      247.64334     -42354.3        187.72008      190.02054      352.04279    
     44100  -42588.953      249.26652     -42339.686      187.69733      189.99915      352.18707    
     44200  -42575.031      250.30656     -42324.724      187.67384      189.97767      352.33135    
     44300  -42561.529      251.49652     -42310.033      187.64987      189.95634      352.47563    
     44400  -42547.358      251.01036     -42296.347      187.62692      189.935        352.61991    
     44500  -42532.985      246.64553     -42286.34       187.60358      189.91225      352.76419    
     44600  -42518.107      243.14987     -42274.957      187.58136      189.89091      352.90847    
     44700  -42507.246      249.52257     -42257.724      187.55816      189.86798      353.05275    
     44800  -42490.823      252.68678     -42238.136      187.53755      189.84558      353.19703    
     44900  -42474.143      250.42292     -42223.72       187.51647      189.82034      353.34131    
     45000  -42462.541      250.35425     -42212.186      187.49725      189.79747      353.48559    
     45100  -42448.717      248.05584     -42200.661      187.47483      189.77409      353.62987    
     45200  -42434.537      247.07056     -42187.466      187.45249      189.75407      353.77415    
     45300  -42421.262      250.6237      -42170.639      187.42824      189.73414      353.91843    
     45400  -42403.669      252.31087     -42151.358      187.40526      189.71461      354.06271    
     45500  -42391.192      253.68362     -42137.509      187.38316      189.69377      354.20699    
     45600  -42374.851      246.36406     -42128.487      187.36192      189.67236      354.35127    
     45700  -42366.627      249.63756     -42116.99       187.34059      189.65107      354.49555    
     45800  -42352.515      250.59422     -42101.92       187.31911      189.6306       354.63983    
     45900  -42334.342      251.85022     -42082.492      187.29742      189.61061      354.78411    
     46000  -42317.729      254.02247     -42063.707      187.27597      189.59019      354.92839    
     46100  -42302.795      249.90006     -42052.895      187.25541      189.5698       355.07267    
     46200  -42293.087      250.04163     -42043.045      187.23346      189.5491       355.21695    
     46300  -42279.731      250.70657     -42029.024      187.21309      189.52942      355.36122    
     46400  -42264.799      249.78875     -42015.011      187.19198      189.50798      355.5055     
     46500  -42249.78       250.1918      -41999.588      187.17191      189.48792      355.64978    
     46600  -42233.6        250.08981     -41983.51       187.15         189.46744      355.79406    
     46700  -42219.992      250.62429     -41969.368      187.12883      189.44765      355.93834    
     46800  -42207.537      247.23264     -41960.304      187.10732      189.42816      356.08262    
     46900  -42194.211      246.06154     -41948.149      187.0856       189.40836      356.2269     
     47000  -42180.95       250.02769     -41930.922      187.06438      189.38844      356.37118    
     47100  -42166.43       254.06047     -41912.369      187.04341      189.36808      356.51546    
     47200  -42151.606      253.96853     -41897.637      187.02265      189.34728      356.65974    
     47300  -42133.332      248.22323     -41885.109      187.00263      189.32605      356.80402    
     47400  -42122.378      249.07296     -41873.305      186.98273      189.30445      356.9483     
     47500  -42109.395      248.78756     -41860.607      186.96314      189.28254      357.09258    
     47600  -42099.453      249.5844      -41849.868      186.94394      189.26035      357.23686    
     47700  -42085.642      248.01292     -41837.629      186.92426      189.23932      357.38114    
     47800  -42066.816      248.9017      -41817.915      186.90321      189.21961      357.52542    
     47900  -42052.192      252.83794     -41799.354      186.88163      189.20059      357.6697     
     48000  -42037.104      251.60845     -41785.496      186.86022      189.18143      357.81398    
     48100  -42021.054      246.61365     -41774.441      186.83955      189.16217      357.95826    
     48200  -42010.683      247.15286     -41763.531      186.81918      189.14244      358.10254    
     48300  -41999.349      247.13899     -41752.21       186.79935      189.12257      358.24682    
     48400  -41981.799      244.99819     -41736.801      186.77935      189.10275      358.3911     
     48500  -41966.87       251.39833     -41715.472      186.75971      189.08342      358.53538    
     48600  -41949.613      251.39681     -41698.216      186.7396       189.06324      358.67966    
     48700  -41932.298      247.79087     -41684.507      186.72079      189.04435      358.82394    
     48800  -41922.173      248.04118     -41674.132      186.70034      189.02417      358.96822    
     48900  -41909.571      246.70324     -41662.868      186.68055      189.00566      359.1125     
     49000  -41893.192      247.06962     -41646.122      186.65977      188.98733      359.25678    
     49100  -41877.65       251.86071     -41625.79       186.63968      188.96844      359.40106    
     49200  -41861.077      251.04271     -41610.034      186.62041      188.94853      359.54534    
     49300  -41846.388      248.81935     -41597.569      186.602        188.92855      359.68962    
     49400  -41836.462      250.17442     -41586.287      186.58293      188.90909      359.8339     
     49500  -41821.467      247.76645     -41573.701      186.56207      188.88962      359.97818    
     49600  -41806.324      248.35577     -41557.968      186.54207      188.87168      360.12246    
     49700  -41787.686      249.51104     -41538.175      186.52092      188.85243      360.26674    
     49800  -41775.164      254.92822     -41520.236      186.50053      188.83458      360.41102    
     49900  -41760.185      249.85496     -41510.33       186.47928      188.815        360.5553     
     50000  -41747.696      248.61783     -41499.079      186.46029      188.79555      360.69958    
     50100  -41731.943      247.52252     -41484.421      186.44175      188.77404      360.84386    
     50200  -41721.096      251.33221     -41469.764      186.42332      188.75204      360.98814    
     50300  -41704.852      247.68942     -41457.162      186.40617      188.73167      361.13242    
     50400  -41694.39       248.25565     -41446.134      186.38592      188.71009      361.2767     
     50500  -41679.337      247.00914     -41432.328      186.3677       188.69138      361.42098    
     50600  -41663.131      250.56302     -41412.568      186.34628      188.67094      361.56526    
     50700  -41644.513      250.98558     -41393.527      186.32673      188.65399      361.70954    
     50800  -41635.475      255.24733     -41380.228      186.30497      188.63468      361.85382    
     50900  -41618.046      248.54722     -41369.499      186.286        188.61674      361.9981     
     51000  -41603.769      247.71461     -41356.054      186.266        188.5965       362.14238    
     51100  -41593.362      251.78344     -41341.579      186.24748      188.57695      362.28666    
     51200  -41573.734      247.24715     -41326.487      186.22913      188.55746      362.43094    
     51300  -41562.081      251.45513     -41310.626      186.20967      188.53733      362.57522    
     51400  -41547.739      253.6726      -41294.067      186.19189      188.51933      362.7195     
     51500  -41530.911      251.05463     -41279.856      186.17048      188.4994       362.86378    
     51600  -41522.308      252.95777     -41269.35       186.15166      188.48331      363.00806    
     51700  -41506.152      249.60843     -41256.543      186.13001      188.46365      363.15234    
     51800  -41485.474      246.10069     -41239.373      186.113        188.4462       363.29662    
     51900  -41470.799      253.61489     -41217.184      186.0936       188.42423      363.4409     
     52000  -41454.93       252.96784     -41201.962      186.07672      188.40574      363.58518    
     52100  -41440.446      250.06751     -41190.378      186.05575      188.38607      363.72946    
     52200  -41430.168      251.3816      -41178.786      186.03603      188.3694       363.87374    
     52300  -41412.357      247.27306     -41165.084      186.01502      188.3508       364.01801    
     52400  -41399.777      248.56182     -41151.216      185.99521      188.33193      364.16229    
     52500  -41388.564      247.74529     -41140.819      185.97601      188.3131       364.30657    
     52600  -41372.751      244.08991     -41128.661      185.95546      188.29403      364.45085    
     52700  -41357.581      249.32348     -41108.257      185.93594      188.27548      364.59513    
     52800  -41338.206      248.31787     -41089.889      185.91628      188.25439      364.73941    
     52900  -41326.232      250.98525     -41075.247      185.89915      188.23415      364.88369    
     53000  -41314.376      251.09819     -41063.277      185.88031      188.21195      365.02797    
     53100  -41295.878      243.94092     -41051.938      185.86265      188.19208      365.17225    
     53200  -41285.33       248.15997     -41037.17       185.84243      188.1724       365.31653    
     53300  -41268.825      248.34036     -41020.485      185.82277      188.15373      365.46081    
     53400  -41253.156      249.31211     -41003.844      185.80234      188.13442      365.60509    
     53500  -41240.446      252.42481     -40988.021      185.78359      188.11515      365.74937    
     53600  -41227.032      250.82078     -40976.211      185.76412      188.09521      365.89365    
     53700  -41211.424      245.47767     -40965.947      185.74431      188.07712      366.03793    
     53800  -41195.705      246.32523     -40949.38       185.7233       188.05923      366.18221    
     53900  -41178.32       248.72807     -40929.592      185.70307      188.04162      366.32649    
     54000  -41161.98       249.8534      -40912.126      185.68359      188.02142      366.47077    
     54100  -41146.63       248.63385     -40897.996      185.66692      188.00155      366.61505    
     54200  -41137.273      251.77681     -40885.496      185.64808      187.97976      366.75933    
     54300  -41121.227      247.99562     -40873.231      185.63019      187.96237      366.90361    
     54400  -41107.913      248.53        -40859.383      185.60713      187.94357      367.04789    
     54500  -41091.424      245.8934      -40845.53       185.58793      187.9282       367.19217    
     54600  -41081.943      250.49964     -40831.444      185.5669       187.90741      367.33645    
     54700  -41065.241      251.44529     -40813.796      185.5506       187.88807      367.48073    
     54800  -41044.273      250.05339     -40794.219      185.53148      187.86612      367.62501    
     54900  -41030.598      252.8377      -40777.76       185.51227      187.84817      367.76929    
     55000  -41017.574      249.64866     -40767.926      185.49051      187.8304       367.91357    
     55100  -41002.144      246.35491     -40755.789      185.46967      187.81258      368.05785    
     55200  -40985.912      246.81668     -40739.095      185.45028      187.79231      368.20213    
     55300  -40971.446      251.05793     -40720.388      185.43264      187.77052      368.34641    
     55400  -40954.665      252.19276     -40702.472      185.41417      187.74961      368.49069    
     55500  -40943.562      254.37375     -40689.189      185.39281      187.73134      368.63497    
     55600  -40928.413      248.54546     -40679.868      185.36972      187.71394      368.77925    
     55700  -40914.264      247.86571     -40666.399      185.34943      187.69595      368.92353    
     55800  -40898.634      248.20791     -40650.427      185.33125      187.67282      369.06781    
     55900  -40885.249      253.21485     -40632.034      185.31592      187.64915      369.21209    
     56000  -40865.335      251.56002     -40613.775      185.29792      187.62734      369.35637    
     56100  -40849.971      248.14608     -40601.825      185.2759       187.60905      369.50065    
     56200  -40837.912      246.98602     -40590.926      185.25319      187.59338      369.64493    
     56300  -40828.672      252.29491     -40576.378      185.2308       187.57534      369.78921    
     56400  -40809.565      249.19605     -40560.369      185.21217      187.55591      369.93349    
     56500  -40794.673      250.28713     -40544.386      185.19285      187.53411      370.07777    
     56600  -40780.843      251.11031     -40529.733      185.17385      187.51538      370.22205    
     56700  -40761.357      244.35256     -40517.005      185.1515       187.49723      370.36633    
     56800  -40751.185      247.20045     -40503.984      185.13064      187.47982      370.51061    
     56900  -40737.914      249.485       -40488.429      185.1108       187.4591       370.65489    
     57000  -40716.765      248.78903     -40467.976      185.09407      187.43795      370.79917    
     57100  -40700.131      252.11226     -40448.019      185.07468      187.41554      370.94345    
     57200  -40686.264      250.60543     -40435.659      185.05419      187.39933      371.08773    
     57300  -40672.725      248.04828     -40424.677      185.02956      187.38277      371.23201    
     57400  -40658.146      248.56246     -40409.583      185.00861      187.36554      371.37629    
     57500  -40641.635      247.74194     -40393.893      184.98966      187.34365      371.52057    
     57600  -40630.861      251.07708     -40379.784      184.97296      187.32126      371.66485    
     57700  -40617.682      249.29827     -40368.384      184.95416      187.29988      371.80913    
     57800  -40601.27       247.80121     -40353.469      184.93175      187.28159      371.95341    
     57900  -40580.747      248.81467     -40331.932      184.9089       187.26554      372.09769    
     58000  -40563.533      252.52403     -40311.009      184.88617      187.24581      372.24197    
     58100  -40551.408      254.99894     -40296.409      184.86789      187.22456      372.38625    
     58200  -40537.799      253.36209     -40284.437      184.84943      187.20151      372.53052    
     58300  -40523.78       251.68392     -40272.096      184.82973      187.18089      372.6748     
     58400  -40511.297      252.72444     -40258.573      184.80717      187.16262      372.81908    
     58500  -40491.705      248.00301     -40243.702      184.78432      187.14451      372.96336    
     58600  -40479.688      250.20759     -40229.48       184.76437      187.12392      373.10764    
     58700  -40466.305      247.70283     -40218.602      184.74694      187.10027      373.25192    
     58800  -40448.267      244.89861     -40203.368      184.73031      187.07764      373.3962     
     58900  -40432.35       251.54933     -40180.8        184.70861      187.05662      373.54048    
     59000  -40414.127      252.4566      -40161.671      184.68574      187.04036      373.68476    
     59100  -40398.926      251.96456     -40146.962      184.66232      187.02215      373.82904    
     59200  -40386.174      252.48971     -40133.684      184.64288      187.00228      373.97332    
     59300  -40370.323      250.50761     -40119.815      184.62334      186.98042      374.1176     
     59400  -40354.417      249.88881     -40104.529      184.60388      186.9605       374.26188    
     59500  -40341.633      252.69077     -40088.942      184.58108      186.94138      374.40616    
     59600  -40324.834      250.56093     -40074.273      184.55948      186.92375      374.55044    
     59700  -40310.385      245.46814     -40064.917      184.53921      186.90402      374.69472    
     59800  -40295.295      247.56637     -40047.729      184.5206       186.88137      374.839      
     59900  -40277.353      250.68517     -40026.668      184.50351      186.85952      374.98328    
     60000  -40259.261      252.08852     -40007.173      184.48214      186.83793      375.12756    
     60100  -40241.59       249.64016     -39991.95       184.46079      186.82175      375.27184    
     60200  -40230.58       248.61603     -39981.964      184.43626      186.80238      375.41612    
     60300  -40212.151      246.87247     -39965.279      184.41782      186.78402      375.5604     
     60400  -40199.525      252.27685     -39947.248      184.3968       186.75908      375.70468    
     60500  -40178.52       249.77882     -39928.741      184.37977      186.73849      375.84896    
     60600  -40163.602      247.73703     -39915.865      184.3572       186.71716      375.99324    
     60700  -40148.881      246.30985     -39902.572      184.33505      186.70032      376.13752    
     60800  -40138.525      251.97741     -39886.547      184.31117      186.67969      376.2818     
     60900  -40118.225      249.30116     -39868.924      184.29229      186.65932      376.42608    
     61000  -40107.745      253.7738      -39853.971      184.2733       186.63514      376.57036    
     61100  -40088.442      246.8836      -39841.558      184.25432      186.61355      376.71464    
     61200  -40071.04       246.51078     -39824.529      184.23224      186.59458      376.85892    
     61300  -40054.358      249.93611     -39804.422      184.20837      186.57616      377.0032     
     61400  -40036.883      255.38148     -39781.501      184.18714      186.55681      377.14748    
     61500  -40015.392      252.27484     -39763.117      184.16833      186.53336      377.29176    
     61600  -40002.306      249.26612     -39753.04       184.15101      186.51041      377.43604    
     61700  -39989.782      250.82066     -39738.961      184.13012      186.48897      377.58032    
     61800  -39979.931      254.85546     -39725.076      184.10818      186.4711       377.7246     
     61900  -39961.828      252.01051     -39709.818      184.08507      186.4521       377.86888    
     62000  -39945.72       252.31929     -39693.401      184.06538      186.43198      378.01316    
     62100  -39926.227      247.95698     -39678.27       184.04599      186.41026      378.15744    
     62200  -39913.199      247.32535     -39665.873      184.02505      186.3903       378.30172    
     62300  -39894.44       246.34042     -39648.1        184.00228      186.37276      378.446      
     62400  -39873.399      249.29528     -39624.104      183.97907      186.35473      378.59028    
     62500  -39856.048      254.86947     -39601.179      183.95928      186.33427      378.73456    
     62600  -39841.769      256.36339     -39585.405      183.94149      186.31062      378.87884    
     62700  -39823.75       251.41942     -39572.331      183.92417      186.2884       379.02312    
     62800  -39809.777      251.78664     -39557.99       183.90277      186.26733      379.1674     
     62900  -39794.16       251.35659     -39542.804      183.88137      186.24939      379.31168    
     63000  -39777.426      250.53552     -39526.891      183.85892      186.22952      379.45596    
     63100  -39760.073      250.41174     -39509.662      183.83979      186.20892      379.60024    
     63200  -39742.195      246.25998     -39495.935      183.82015      186.18623      379.74452    
     63300  -39725.219      244.33687     -39480.883      183.80021      186.16578      379.8888     
     63400  -39706.111      245.80139     -39460.31       183.77773      186.14676      380.03308    
     63500  -39685.849      248.0859      -39437.763      183.75564      186.12786      380.17736    
     63600  -39669.91       254.65281     -39415.257      183.73545      186.1074       380.32164    
     63700  -39650.843      252.45873     -39398.384      183.71648      186.08508      380.46592    
     63800  -39638.825      252.09953     -39386.725      183.69688      186.06375      380.6102     
     63900  -39621.453      249.31743     -39372.135      183.6766       186.04374      380.75448    
     64000  -39605.915      249.99396     -39355.921      183.65574      186.02373      380.89876    
     64100  -39590.362      250.82153     -39339.541      183.63561      186.00354      381.04303    
     64200  -39568.754      247.10393     -39321.65       183.61618      185.98291      381.18731    
     64300  -39557.053      250.51751     -39306.536      183.59643      185.96242      381.33159    
     64400  -39537.361      246.15685     -39291.204      183.57583      185.94305      381.47587    
     64500  -39523.116      252.72683     -39270.39       183.55483      185.92395      381.62015    
     64600  -39492.937      248.79009     -39244.147      183.53459      185.90538      381.76443    
     64700  -39475.372      252.60676     -39222.766      183.51449      185.88511      381.90871    
     64800  -39459.938      254.20528     -39205.732      183.4964       185.86533      382.05299    
     64900  -39442.698      251.40247     -39191.296      183.47705      185.84424      382.19727    
     65000  -39426.899      251.46145     -39175.438      183.4574       185.82548      382.34155    
     65100  -39411.482      252.9945      -39158.488      183.43606      185.80737      382.48583    
     65200  -39390.443      249.72696     -39140.717      183.41492      185.78941      382.63011    
     65300  -39373.886      251.78655     -39122.1        183.39531      185.76913      382.77439    
     65400  -39355.795      249.91593     -39105.879      183.37787      185.74803      382.91867    
     65500  -39337.786      245.89298     -39091.893      183.35919      185.72769      383.06295    
     65600  -39319.898      249.55064     -39070.347      183.33906      185.70877      383.20723    
     65700  -39296.458      250.19101     -39046.266      183.31937      185.68936      383.35151    
     65800  -39276.082      250.86976     -39025.212      183.30133      185.66874      383.49579    
     65900  -39261.545      250.93302     -39010.612      183.28319      185.6475       383.64007    
     66000  -39244.525      252.20867     -38992.316      183.2642       185.6287       383.78435    
     66100  -39221.669      249.14935     -38972.52       183.2437       185.61041      383.92863    
     66200  -39204.394      249.49629     -38954.898      183.22358      185.59244      384.07291    
     66300  -39188.683      250.69504     -38937.987      183.20469      185.57322      384.21719    
     66400  -39166.261      248.43406     -38917.827      183.18655      185.55347      384.36147    
     66500  -39147.935      252.38371     -38895.552      183.16735      185.53445      384.50575    
     66600  -39130.291      254.65368     -38875.637      183.14775      185.51728      384.65003    
     66700  -39107.637      249.81264     -38857.824      183.12794      185.49889      384.79431    
     66800  -39088.506      250.56889     -38837.937      183.11073      185.48004      384.93859    
     66900  -39069.168      252.27945     -38816.888      183.09445      185.45913      385.08287    
     67000  -39049.595      251.95139     -38797.643      183.07787      185.43979      385.22715    
     67100  -39027.04       248.29057     -38778.749      183.05882      185.4224       385.37143    
     67200  -39004.475      247.3339      -38757.141      183.03872      185.40623      385.51571    
     67300  -38987.174      250.71651     -38736.458      183.02072      185.38881      385.65999    
     67400  -38968.618      251.43861     -38717.18       183.00398      185.36939      385.80427    
     67500  -38946.241      249.05278     -38697.188      182.987        185.35134      385.94855    
     67600  -38929.988      253.58414     -38676.404      182.96756      185.33497      386.09283    
     67700  -38908.961      252.7275      -38656.234      182.94864      185.31903      386.23711    
     67800  -38885.489      249.6714      -38635.818      182.93114      185.30033      386.38139    
     67900  -38865.282      249.72425     -38615.558      182.91603      185.28191      386.52567    
     68000  -38847.807      252.37649     -38595.431      182.898        185.26323      386.66995    
     68100  -38830.891      256.42318     -38574.468      182.87964      185.2484       386.81423    
     68200  -38806.022      251.94668     -38554.076      182.86058      185.23123      386.95851    
     68300  -38782.205      249.33796     -38532.867      182.8456       185.21331      387.10279    
     68400  -38764.558      252.53287     -38512.025      182.83029      185.19255      387.24707    
     68500  -38740.643      249.78511     -38490.858      182.81561      185.17453      387.39135    
[...]
     81600  -46208.377      241.96885     -45966.408      183.14936      184.65392      406.29201    
     81700  -46208.204      249.92125     -45958.282      183.18996      184.67912      406.43629    
     81800  -46204.227      256.84708     -45947.379      183.23153      184.70182      406.58057    
     81900  -46205.896      257.43326     -45948.463      183.27303      184.72026      406.72484    
     82000  -46204.018      242.08404     -45961.934      183.31064      184.73985      406.86912    
     82100  -46210.413      247.23822     -45963.175      183.34834      184.75485      407.0134     
     82200  -46217.716      260.23796     -45957.478      183.39106      184.77265      407.15768    
     82300  -46225.671      257.28029     -45968.391      183.43815      184.7876       407.30196    
     82400  -46234.029      245.87437     -45988.154      183.48276      184.80021      407.44624    
     82500  -46219.094      224.20622     -45994.888      183.52345      184.81357      407.59052    
     82600  -46206.149      239.41822     -45966.731      183.55196      184.83145      407.7348     
     82700  -46182.741      257.54031     -45925.201      183.58833      184.85415      407.87908    
     82800  -46189.475      281.60843     -45907.867      183.62999      184.88299      408.02336    
     82900  -46208.106      261.37041     -45946.736      183.67811      184.91444      408.16764    
     83000  -46233.561      237.5423      -45996.018      183.72938      184.93921      408.31192    
     83100  -46251.136      234.68919     -46016.447      183.78377      184.96615      408.4562     
     83200  -46245.13       236.48156     -46008.648      183.83055      184.98838      408.60048    
     83300  -46228.869      248.44593     -45980.423      183.8752       185.01029      408.74476    
     83400  -46209.516      255.45063     -45954.066      183.91508      185.0329       408.88904    
     83500  -46209.583      263.45508     -45946.128      183.95726      185.06186      409.03332    
     83600  -46211.881      249.68082     -45962.2        184.00402      185.08605      409.1776     
     83700  -46209.977      234.32944     -45975.648      184.05154      185.11309      409.32188    
     83800  -46203.001      239.08679     -45963.914      184.09566      185.13882      409.46616    
     83900  -46192.811      257.60848     -45935.203      184.1399       185.16721      409.61044    
     84000  -46182.44       262.24153     -45920.199      184.18578      185.19923      409.75472    
     84100  -46184.718      255.46245     -45929.255      184.23675      185.23557      409.899      
     84200  -46188.116      241.86222     -45946.254      184.28533      185.27111      410.04328    
     84300  -46189.149      238.46534     -45950.684      184.34117      185.3124       410.18756    
     84400  -46188.172      252.49427     -45935.678      184.39104      185.34271      410.33184    
     84500  -46183.578      261.87148     -45921.706      184.44986      185.3805       410.47612    
     84600  -46191.133      258.58138     -45932.552      184.49948      185.41332      410.6204     
     84700  -46206.596      242.89221     -45963.704      184.5477       185.45599      410.76468    
     84800  -46224.412      240.39274     -45984.02       184.58538      185.49595      410.90896    
     84900  -46230.348      244.9001      -45985.448      184.62696      185.54289      411.05324    
     85000  -46228.093      251.88678     -45976.206      184.66817      185.58278      411.19752    
     85100  -46222.311      252.37603     -45969.935      184.70656      185.61718      411.3418     
     85200  -46221.303      249.95062     -45971.352      184.747        185.64983      411.48608    
     85300  -46214.466      241.82406     -45972.642      184.78971      185.68223      411.63036    
     85400  -46207.933      248.14591     -45959.787      184.83417      185.71561      411.77464    
     85500  -46196.85       252.92687     -45943.923      184.87417      185.75018      411.91892    
     85600  -46198.092      257.86364     -45940.229      184.91396      185.78802      412.0632     
     85700  -46206.313      253.51522     -45952.798      184.95384      185.82456      412.20748    
     85800  -46211.666      243.13498     -45968.531      184.99931      185.85965      412.35176    
     85900  -46217.858      242.60856     -45975.249      185.05267      185.89086      412.49604    
     86000  -46222.711      249.49951     -45973.212      185.10553      185.91929      412.64032    
     86100  -46232.654      257.2532      -45975.401      185.15848      185.94789      412.7846     
     86200  -46236.615      247.3883      -45989.227      185.20581      185.98009      412.92888    
     86300  -46240.44       243.34345     -45997.097      185.25152      186.01786      413.07316    
     86400  -46236.176      245.68475     -45990.491      185.29457      186.05979      413.21744    
     86500  -46232.391      254.20989     -45978.181      185.33511      186.10288      413.36172    
     86600  -46230.068      254.7965      -45975.271      185.38038      186.14679      413.506      
     86700  -46226.362      244.14426     -45982.217      185.42541      186.18311      413.65028    
     86800  -46223.123      241.49847     -45981.624      185.47641      186.21479      413.79456    
     86900  -46213.526      246.835       -45966.691      185.52724      186.24178      413.93884    
     87000  -46200.054      254.06513     -45945.989      185.58162      186.26836      414.08312    
     87100  -46188.085      256.56733     -45931.518      185.63189      186.29297      414.2274     
     87200  -46189.49       258.99378     -45930.496      185.68365      186.32401      414.37168    
     87300  -46195.859      253.65143     -45942.208      185.73013      186.35447      414.51596    
     87400  -46203.438      243.265       -45960.173      185.77545      186.39262      414.66024    
     87500  -46212.502      242.32637     -45970.176      185.81567      186.42881      414.80452    
     87600  -46214.599      248.50543     -45966.093      185.85293      186.46794      414.9488     
     87700  -46207.516      251.58665     -45955.929      185.88459      186.50701      415.09308    
     87800  -46207.204      255.92838     -45951.276      185.91998      186.54451      415.23736    
     87900  -46212.029      254.34507     -45957.684      185.95547      186.57384      415.38163    
     88000  -46217.035      248.9439      -45968.091      185.99685      186.60486      415.52591    
     88100  -46219.647      245.61343     -45974.034      186.03185      186.63378      415.67019    
     88200  -46218.63       245.95984     -45972.67       186.06673      186.66696      415.81447    
     88300  -46216.409      249.57164     -45966.838      186.09539      186.69952      415.95875    
     88400  -46210.767      249.97611     -45960.791      186.12522      186.73175      416.10303    
     88500  -46211.962      252.21478     -45959.747      186.1567       186.7634       416.24731    
     88600  -46214.545      249.22333     -45965.322      186.1919       186.79745      416.39159    
     88700  -46214.559      244.35493     -45970.204      186.22637      186.82649      416.53587    
     88800  -46221.295      251.2839      -45970.011      186.26606      186.85869      416.68015    
     88900  -46226.648      253.39924     -45973.249      186.30533      186.88804      416.82443    
     89000  -46230.01       247.09731     -45982.913      186.34838      186.92002      416.96871    
     89100  -46232.241      244.43333     -45987.808      186.38754      186.94937      417.11299    
     89200  -46228.367      245.79086     -45982.576      186.42818      186.98409      417.25727    
     89300  -46229.063      256.72837     -45972.334      186.46643      187.01707      417.40155    
     89400  -46225.592      255.18414     -45970.408      186.50644      187.04979      417.54583    
     89500  -46226.939      247.71598     -45979.223      186.55038      187.08139      417.69011    
     89600  -46222.409      239.00815     -45983.401      186.59563      187.1127       417.83439    
     89700  -46216.373      243.53716     -45972.836      186.64271      187.14776      417.97867    
     89800  -46208.505      252.79967     -45955.705      186.68422      187.18246      418.12295    
     89900  -46203.33       257.5254      -45945.804      186.7244       187.22098      418.26723    
     90000  -46202.091      253.19061     -45948.901      186.76139      187.25858      418.41151    
     90100  -46209.638      248.72412     -45960.914      186.8001       187.29809      418.55579    
     90200  -46214.694      246.0398      -45968.654      186.8394       187.33287      418.70007    
     90300  -46213.21       245.26686     -45967.943      186.88279      187.36633      418.84435    
     90400  -46209.486      250.38801     -45959.098      186.92494      187.39549      418.98863    
     90500  -46203.964      254.41104     -45949.553      186.96901      187.42962      419.13291    
     90600  -46204.96       254.4249      -45950.535      187.00791      187.46051      419.27719    
     90700  -46210.885      250.74652     -45960.139      187.04487      187.49674      419.42147    
     90800  -46207.824      240.23309     -45967.591      187.07623      187.53283      419.56575    
     90900  -46212.263      246.57349     -45965.69       187.11139      187.57038      419.71003    
     91000  -46210.614      250.94745     -45959.667      187.14501      187.60494      419.85431    
     91100  -46209.798      251.20576     -45958.592      187.18031      187.64132      419.99859    
     91200  -46216.669      250.9258      -45965.743      187.21611      187.67298      420.14287    
     91300  -46217.44       245.10283     -45972.337      187.25533      187.70643      420.28715    
     91400  -46222.329      250.1036      -45972.226      187.29584      187.73879      420.43143    
     91500  -46221.653      251.85468     -45969.798      187.3392       187.77095      420.57571    
     91600  -46220.897      249.72709     -45971.17       187.38494      187.80201      420.71999    
     91700  -46229.757      253.94159     -45975.816      187.43275      187.83227      420.86427    
     91800  -46230.672      247.7227      -45982.949      187.47923      187.86386      421.00855    
     91900  -46230.295      243.07223     -45987.223      187.52469      187.90216      421.15283    
     92000  -46226.598      245.34561     -45981.253      187.56485      187.94524      421.29711    
     92100  -46224.961      253.6711      -45971.29       187.60433      187.99344      421.44139    
     92200  -46222.49       254.37059     -45968.12       187.64338      188.04059      421.58567    
     92300  -46219.024      246.75936     -45972.265      187.6868       188.08825      421.72995    
     92400  -46219.577      244.945       -45974.632      187.73077      188.13161      421.87423    
     92500  -46218.623      247.96593     -45970.657      187.7764       188.17448      422.01851    
     92600  -46211.581      249.23013     -45962.351      187.82101      188.21738      422.16279    
     92700  -46208.724      254.03775     -45954.686      187.86592      188.25909      422.30707    
     92800  -46201.174      250.49114     -45950.683      187.91115      188.29956      422.45135    
     92900  -46203.576      251.92245     -45951.654      187.95689      188.33994      422.59563    
     93000  -46202          245.38732     -45956.612      188.00188      188.37767      422.73991    
     93100  -46210.713      249.93523     -45960.777      188.04572      188.41376      422.88419    
     93200  -46211.585      248.85976     -45962.725      188.08506      188.44963      423.02847    
     93300  -46207.529      247.31936     -45960.21       188.12313      188.4867       423.17275    
     93400  -46208.981      253.96273     -45955.018      188.15837      188.52197      423.31703    
     93500  -46208.508      251.63709     -45956.871      188.19674      188.55944      423.46131    
     93600  -46215.524      251.52781     -45963.996      188.23198      188.5934       423.60559    
     93700  -46217.34       246.89585     -45970.445      188.26945      188.62772      423.74987    
     93800  -46219.248      248.3089      -45970.939      188.30365      188.6602       423.89414    
     93900  -46219.138      251.91969     -45967.219      188.3375       188.69673      424.03842    
     94000  -46219.79       253.53753     -45966.253      188.36668      188.7302       424.1827     
     94100  -46219.305      249.39313     -45969.912      188.40135      188.76518      424.32698    
     94200  -46221.438      246.82742     -45974.611      188.43717      188.79707      424.47126    
     94300  -46227.878      251.14746     -45976.73       188.48029      188.828        424.61554    
     94400  -46228.81       251.70188     -45977.108      188.5251       188.8559       424.75982    
     94500  -46229.961      252.31326     -45977.647      188.57235      188.88684      424.9041     
     94600  -46229.758      250.23452     -45979.524      188.61545      188.91927      425.04838    
     94700  -46232.186      250.5058      -45981.68       188.66003      188.9572       425.19266    
     94800  -46231.858      245.97863     -45985.879      188.70015      188.9987       425.33694    
     94900  -46234.118      247.56068     -45986.558      188.74106      189.04413      425.48122    
     95000  -46228.451      247.85624     -45980.595      188.78191      189.08737      425.6255     
     95100  -46220.22       247.48075     -45972.739      188.82789      189.13072      425.76978    
     95200  -46223.362      254.60723     -45968.755      188.8727       189.17212      425.91406    
     95300  -46221.996      249.80221     -45972.194      188.91914      189.21518      426.05834    
     95400  -46223.479      246.27408     -45977.205      188.96206      189.25919      426.20262    
     95500  -46219.368      242.87661     -45976.491      189.00588      189.30593      426.3469     
     95600  -46218.914      250.65996     -45968.255      189.04633      189.34894      426.49118    
     95700  -46215.178      255.62879     -45959.549      189.08974      189.39364      426.63546    
     95800  -46209.058      252.36022     -45956.698      189.13092      189.43191      426.77974    
     95900  -46212.093      251.78311     -45960.309      189.17822      189.47007      426.92402    
     96000  -46215.265      248.66903     -45966.596      189.22057      189.50039      427.0683     
     96100  -46216.483      246.33398     -45970.149      189.26689      189.5351       427.21258    
     96200  -46213.78       247.16592     -45966.614      189.30812      189.56571      427.35686    
     96300  -46210.543      251.61711     -45958.926      189.34663      189.59875      427.50114    
     96400  -46213.821      257.54665     -45956.275      189.38125      189.63326      427.64542    
     96500  -46215.938      252.26082     -45963.678      189.41398      189.67053      427.7897     
     96600  -46220.388      244.20491     -45976.184      189.44866      189.70906      427.93398    
     96700  -46227.222      243.31098     -45983.911      189.48054      189.74256      428.07826    
     96800  -46230.142      247.80924     -45982.333      189.51997      189.78011      428.22254    
     96900  -46228.487      252.6969      -45975.79       189.55451      189.81188      428.36682    
     97000  -46224.372      252.45596     -45971.916      189.59508      189.85111      428.5111     
     97100  -46228.354      253.50452     -45974.85       189.62902      189.88296      428.65538    
     97200  -46229.874      248.46301     -45981.411      189.67029      189.92082      428.79966    
     97300  -46231.314      246.57909     -45984.735      189.70793      189.9514       428.94394    
     97400  -46231.965      249.30128     -45982.664      189.75383      189.98835      429.08822    
     97500  -46224.876      248.19959     -45976.676      189.79478      190.02052      429.2325     
     97600  -46225.234      253.06998     -45972.164      189.84098      190.0606       429.37678    
     97700  -46222.358      250.14131     -45972.216      189.881        190.0968       429.52106    
     97800  -46223.516      248.6319      -45974.884      189.92469      190.13977      429.66534    
     97900  -46221.519      246.19496     -45975.324      189.96017      190.18016      429.80962    
     98000  -46221.937      250.98446     -45970.952      189.99747      190.22566      429.9539     
     98100  -46218.228      252.44625     -45965.781      190.02871      190.26902      430.09818    
     98200  -46213.802      251.50246     -45962.299      190.06321      190.31429      430.24246    
     98300  -46214.072      250.84977     -45963.222      190.09502      190.35472      430.38674    
     98400  -46216.087      249.39462     -45966.693      190.13158      190.39693      430.53102    
     98500  -46214.663      246.97886     -45967.684      190.1645       190.43331      430.6753     
     98600  -46211.958      247.36655     -45964.592      190.19873      190.47019      430.81958    
     98700  -46210.137      250.30024     -45959.837      190.23025      190.50242      430.96386    
     98800  -46210.031      251.86625     -45958.164      190.26462      190.53581      431.10814    
     98900  -46213.101      249.98543     -45963.116      190.29713      190.56593      431.25242    
     99000  -46215.964      247.27548     -45968.689      190.33081      190.59491      431.3967     
     99100  -46217.108      247.60185     -45969.506      190.36422      190.62439      431.54098    
     99200  -46218.497      250.963       -45967.534      190.39563      190.65312      431.68526    
     99300  -46217.702      250.28469     -45967.417      190.42646      190.68399      431.82954    
     99400  -46221.22       251.17319     -45970.047      190.45337      190.71618      431.97382    
     99500  -46224.194      249.71073     -45974.483      190.48063      190.74911      432.1181     
     99600  -46226.124      247.85072     -45978.273      190.50796      190.78079      432.26238    
     99700  -46229.625      249.11529     -45980.51       190.53807      190.81217      432.40666    
     99800  -46229.199      249.45425     -45979.745      190.57051      190.84007      432.55093    
     99900  -46226.642      248.58605     -45978.056      190.60759      190.86665      432.69521    
    100000  -46228.255      249.83444     -45978.421      190.64547      190.89288      432.83949    
Loop time of 1383.74 on 12 procs for 100000 steps with 6440 atoms

Performance: 6.244 ns/day, 3.844 hours/ns, 72.268 timesteps/s, 465.404 katom-step/s
90.4% CPU use with 12 MPI tasks x 1 OpenMP threads

MPI task timing breakdown:
Section |  min time  |  avg time  |  max time  |%varavg| %total
---------------------------------------------------------------
Pair    | 739        | 957.73     | 1226.2     | 491.5 | 69.21
Neigh   | 3.8804     | 7.229      | 10.752     |  91.4 |  0.52
Comm    | 115.78     | 384.35     | 606.16     | 770.0 | 27.78
Output  | 0.34376    | 0.36917    | 0.40442    |   3.0 |  0.03
Modify  | 28.173     | 32.592     | 62.136     | 158.4 |  2.36
Other   |            | 1.475      |            |       |  0.11

Nlocal:        536.667 ave        1631 max           1 min
Histogram: 3 3 0 3 0 1 0 0 1 1
Nghost:        1872.75 ave        3225 max         441 min
Histogram: 4 0 0 1 0 0 1 2 3 1
Neighs:              0 ave           0 max           0 min
Histogram: 12 0 0 0 0 0 0 0 0 0

Total # of neighbors = 0
Ave neighs/atom = 0
Neighbor list builds = 688
Dangerous builds = 0
Total wall time: 0:23:04
