LAMMPS data file via write_data, version 2 Aug 2023, timestep = 0, units = metal

1224 atoms
3 atom types

-100 100 xlo xhi
-100 100 ylo yhi
-2.3312511754 41.3164291754 zlo zhi

Masses

1 12.0107
2 12.0107
3 12.0107

Atoms # atomic

1 1 11.277532 -1.396461 0 0 0 0
2 1 10.5963 -4.105029 0 0 0 0
3 1 10.011526 -5.376076 0 0 0 0
4 1 8.397848 -7.65565 0 0 0 0
5 1 7.393407 -8.629622 0 0 0 0
6 1 5.06522 -10.172334 0 0 0 0
7 1 3.776768 -10.717689 0 0 0 0
8 1 1.048507 -11.315188 0 0 0 0
9 1 -0.349945 -11.358273 0 0 0 0
10 1 -3.109814 -10.929862 0 0 0 0
11 1 -4.429395 -10.46486 0 0 0 0
12 1 -6.848137 -9.068399 0 0 0 0
13 1 -7.910632 -8.158109 0 0 0 0
14 1 -9.661581 -5.982198 0 0 0 0
15 1 -10.323493 -4.74956 0 0 0 0
16 1 -11.170175 -2.088068 0 0 0 0
17 1 -11.34211 -0.699557 0 0 0 0
18 1 11.170175 -2.088068 1.212436 0 0 0
19 1 10.828912 -3.444925 1.212436 0 0 0
20 1 9.661581 -5.982198 1.212436 0 0 0
21 1 8.853209 -7.124151 1.212436 0 0 0
22 1 6.848137 -9.068399 1.212436 0 0 0
23 1 5.681831 -9.841221 1.212436 0 0 0
24 1 3.109814 -10.929862 1.212436 0 0 0
25 1 1.743091 -11.229179 1.212436 0 0 0
26 1 -1.048507 -11.315188 1.212436 0 0 0
27 1 -2.431063 -11.100575 1.212436 0 0 0
28 1 -5.06522 -10.172334 1.212436 0 0 0
29 1 -6.276889 -9.472777 1.212436 0 0 0
30 1 -8.397848 -7.65565 1.212436 0 0 0
31 1 -9.274987 -6.565627 1.212436 0 0 0
32 1 -10.5963 -4.105029 1.212436 0 0 0
33 1 -11.020445 -2.771753 1.212436 0 0 0
34 1 10.5963 -4.105029 2.424871 0 0 0
35 1 10.011526 -5.376076 2.424871 0 0 0
36 1 8.397848 -7.65565 2.424871 0 0 0
37 1 7.393407 -8.629622 2.424871 0 0 0
38 1 5.06522 -10.172334 2.424871 0 0 0
39 1 3.776768 -10.717689 2.424871 0 0 0
40 1 1.048507 -11.315188 2.424871 0 0 0
41 1 -0.349945 -11.358273 2.424871 0 0 0
42 1 -3.109814 -10.929862 2.424871 0 0 0
43 1 -4.429395 -10.46486 2.424871 0 0 0
44 1 -6.848137 -9.068399 2.424871 0 0 0
45 1 -7.910632 -8.158109 2.424871 0 0 0
46 1 -9.661581 -5.982198 2.424871 0 0 0
47 1 -10.323493 -4.74956 2.424871 0 0 0
48 1 -11.170175 -2.088068 2.424871 0 0 0
49 1 -11.34211 -0.699557 2.424871 0 0 0
50 1 11.277532 -1.396461 2.424871 0 0 0
51 1 9.661581 -5.982198 3.637307 0 0 0
52 1 8.853209 -7.124151 3.637307 0 0 0
53 1 6.848137 -9.068399 3.637307 0 0 0
54 1 5.681831 -9.841221 3.637307 0 0 0
55 1 3.109814 -10.929862 3.637307 0 0 0
56 1 1.743091 -11.229179 3.637307 0 0 0
57 1 -1.048507 -11.315188 3.637307 0 0 0
58 1 -2.431063 -11.100575 3.637307 0 0 0
59 1 -5.06522 -10.172334 3.637307 0 0 0
60 1 -6.276889 -9.472777 3.637307 0 0 0
61 1 -8.397848 -7.65565 3.637307 0 0 0
62 1 -9.274987 -6.565627 3.637307 0 0 0
63 1 -10.5963 -4.105029 3.637307 0 0 0
64 1 -11.020445 -2.771753 3.637307 0 0 0
65 1 11.170175 -2.088068 3.637307 0 0 0
66 1 10.828912 -3.444925 3.637307 0 0 0
67 1 8.397848 -7.65565 4.849742 0 0 0
68 1 7.393407 -8.629622 4.849742 0 0 0
69 1 5.06522 -10.172334 4.849742 0 0 0
70 1 3.776768 -10.717689 4.849742 0 0 0
71 1 1.048507 -11.315188 4.849742 0 0 0
72 1 -0.349945 -11.358273 4.849742 0 0 0
73 1 -3.109814 -10.929862 4.849742 0 0 0
74 1 -4.429395 -10.46486 4.849742 0 0 0
75 1 -6.848137 -9.068399 4.849742 0 0 0
76 1 -7.910632 -8.158109 4.849742 0 0 0
77 1 -9.661581 -5.982198 4.849742 0 0 0
78 1 -10.323493 -4.74956 4.849742 0 0 0
79 1 -11.170175 -2.088068 4.849742 0 0 0
80 1 -11.34211 -0.699557 4.849742 0 0 0
81 1 11.277532 -1.396461 4.849742 0 0 0
82 1 10.5963 -4.105029 4.849742 0 0 0
83 1 10.011526 -5.376076 4.849742 0 0 0
84 1 6.848137 -9.068399 6.062178 0 0 0
85 1 5.681831 -9.841221 6.062178 0 0 0
86 1 3.109814 -10.929862 6.062178 0 0 0
87 1 1.743091 -11.229179 6.062178 0 0 0
88 1 -1.048507 -11.315188 6.062178 0 0 0
89 1 -2.431063 -11.100575 6.062178 0 0 0
90 1 -5.06522 -10.172334 6.062178 0 0 0
91 1 -6.276889 -9.472777 6.062178 0 0 0
92 1 -8.397848 -7.65565 6.062178 0 0 0
93 1 -9.274987 -6.565627 6.062178 0 0 0
94 1 -10.5963 -4.105029 6.062178 0 0 0
95 1 -11.020445 -2.771753 6.062178 0 0 0
96 1 11.170175 -2.088068 6.062178 0 0 0
97 1 10.828912 -3.444925 6.062178 0 0 0
98 1 9.661581 -5.982198 6.062178 0 0 0
99 1 8.853209 -7.124151 6.062178 0 0 0
100 1 5.06522 -10.172334 7.274613 0 0 0
101 1 3.776768 -10.717689 7.274613 0 0 0
102 1 1.048507 -11.315188 7.274613 0 0 0
103 1 -0.349945 -11.358273 7.274613 0 0 0
104 1 -3.109814 -10.929862 7.274613 0 0 0
105 1 -4.429395 -10.46486 7.274613 0 0 0
106 1 -6.848137 -9.068399 7.274613 0 0 0
107 1 -7.910632 -8.158109 7.274613 0 0 0
108 1 -9.661581 -5.982198 7.274613 0 0 0
109 1 -10.323493 -4.74956 7.274613 0 0 0
110 1 -11.170175 -2.088068 7.274613 0 0 0
111 1 -11.34211 -0.699557 7.274613 0 0 0
112 1 11.277532 -1.396461 7.274613 0 0 0
113 1 10.5963 -4.105029 7.274613 0 0 0
114 1 10.011526 -5.376076 7.274613 0 0 0
115 1 8.397848 -7.65565 7.274613 0 0 0
116 1 7.393407 -8.629622 7.274613 0 0 0
117 1 3.109814 -10.929862 8.487049 0 0 0
118 1 1.743091 -11.229179 8.487049 0 0 0
119 1 -1.048507 -11.315188 8.487049 0 0 0
120 1 -2.431063 -11.100575 8.487049 0 0 0
121 1 -5.06522 -10.172334 8.487049 0 0 0
122 1 -6.276889 -9.472777 8.487049 0 0 0
123 1 -8.397848 -7.65565 8.487049 0 0 0
124 1 -9.274987 -6.565627 8.487049 0 0 0
125 1 -10.5963 -4.105029 8.487049 0 0 0
126 1 -11.020445 -2.771753 8.487049 0 0 0
127 1 11.170175 -2.088068 8.487049 0 0 0
128 1 10.828912 -3.444925 8.487049 0 0 0
129 1 9.661581 -5.982198 8.487049 0 0 0
130 1 8.853209 -7.124151 8.487049 0 0 0
131 1 6.848137 -9.068399 8.487049 0 0 0
132 1 5.681831 -9.841221 8.487049 0 0 0
133 1 1.048507 -11.315188 9.699485 0 0 0
134 1 -0.349945 -11.358273 9.699485 0 0 0
135 1 -3.109814 -10.929862 9.699485 0 0 0
136 1 -4.429395 -10.46486 9.699485 0 0 0
137 1 -6.848137 -9.068399 9.699485 0 0 0
138 1 -7.910632 -8.158109 9.699485 0 0 0
139 1 -9.661581 -5.982198 9.699485 0 0 0
140 1 -10.323493 -4.74956 9.699485 0 0 0
141 1 -11.170175 -2.088068 9.699485 0 0 0
142 1 -11.34211 -0.699557 9.699485 0 0 0
143 1 11.277532 -1.396461 9.699485 0 0 0
144 1 10.5963 -4.105029 9.699485 0 0 0
145 1 10.011526 -5.376076 9.699485 0 0 0
146 1 8.397848 -7.65565 9.699485 0 0 0
147 1 7.393407 -8.629622 9.699485 0 0 0
148 1 5.06522 -10.172334 9.699485 0 0 0
149 1 3.776768 -10.717689 9.699485 0 0 0
150 1 -1.048507 -11.315188 10.91192 0 0 0
151 1 -2.431063 -11.100575 10.91192 0 0 0
152 1 -5.06522 -10.172334 10.91192 0 0 0
153 1 -6.276889 -9.472777 10.91192 0 0 0
154 1 -8.397848 -7.65565 10.91192 0 0 0
155 1 -9.274987 -6.565627 10.91192 0 0 0
156 1 -10.5963 -4.105029 10.91192 0 0 0
157 1 -11.020445 -2.771753 10.91192 0 0 0
158 1 11.170175 -2.088068 10.91192 0 0 0
159 1 10.828912 -3.444925 10.91192 0 0 0
160 1 9.661581 -5.982198 10.91192 0 0 0
161 1 8.853209 -7.124151 10.91192 0 0 0
162 1 6.848137 -9.068399 10.91192 0 0 0
163 1 5.681831 -9.841221 10.91192 0 0 0
164 1 3.109814 -10.929862 10.91192 0 0 0
165 1 1.743091 -11.229179 10.91192 0 0 0
166 1 -3.109814 -10.929862 12.124356 0 0 0
167 1 -4.429395 -10.46486 12.124356 0 0 0
168 1 -6.848137 -9.068399 12.124356 0 0 0
169 1 -7.910632 -8.158109 12.124356 0 0 0
170 1 -9.661581 -5.982198 12.124356 0 0 0
171 1 -10.323493 -4.74956 12.124356 0 0 0
172 1 -11.170175 -2.088068 12.124356 0 0 0
173 1 -11.34211 -0.699557 12.124356 0 0 0
174 1 11.277532 -1.396461 12.124356 0 0 0
175 1 10.5963 -4.105029 12.124356 0 0 0
176 1 10.011526 -5.376076 12.124356 0 0 0
177 1 8.397848 -7.65565 12.124356 0 0 0
178 1 7.393407 -8.629622 12.124356 0 0 0
179 1 5.06522 -10.172334 12.124356 0 0 0
180 1 3.776768 -10.717689 12.124356 0 0 0
181 1 1.048507 -11.315188 12.124356 0 0 0
182 1 -0.349945 -11.358273 12.124356 0 0 0
183 1 -5.06522 -10.172334 13.336791 0 0 0
184 1 -6.276889 -9.472777 13.336791 0 0 0
185 1 -8.397848 -7.65565 13.336791 0 0 0
186 1 -9.274987 -6.565627 13.336791 0 0 0
187 1 -10.5963 -4.105029 13.336791 0 0 0
188 1 -11.020445 -2.771753 13.336791 0 0 0
189 1 11.170175 -2.088068 13.336791 0 0 0
190 1 10.828912 -3.444925 13.336791 0 0 0
191 1 9.661581 -5.982198 13.336791 0 0 0
192 1 8.853209 -7.124151 13.336791 0 0 0
193 1 6.848137 -9.068399 13.336791 0 0 0
194 1 5.681831 -9.841221 13.336791 0 0 0
195 1 3.109814 -10.929862 13.336791 0 0 0
196 1 1.743091 -11.229179 13.336791 0 0 0
197 1 -1.048507 -11.315188 13.336791 0 0 0
198 1 -2.431063 -11.100575 13.336791 0 0 0
199 1 -6.848137 -9.068399 14.549227 0 0 0
200 1 -7.910632 -8.158109 14.549227 0 0 0
201 1 -9.661581 -5.982198 14.549227 0 0 0
202 1 -10.323493 -4.74956 14.549227 0 0 0
203 1 -11.170175 -2.088068 14.549227 0 0 0
204 1 -11.34211 -0.699557 14.549227 0 0 0
205 1 11.277532 -1.396461 14.549227 0 0 0
206 1 10.5963 -4.105029 14.549227 0 0 0
207 1 10.011526 -5.376076 14.549227 0 0 0
208 1 8.397848 -7.65565 14.549227 0 0 0
209 1 7.393407 -8.629622 14.549227 0 0 0
210 1 5.06522 -10.172334 14.549227 0 0 0
211 1 3.776768 -10.717689 14.549227 0 0 0
212 1 1.048507 -11.315188 14.549227 0 0 0
213 1 -0.349945 -11.358273 14.549227 0 0 0
214 1 -3.109814 -10.929862 14.549227 0 0 0
215 1 -4.429395 -10.46486 14.549227 0 0 0
216 1 -8.397848 -7.65565 15.761662 0 0 0
217 1 -9.274987 -6.565627 15.761662 0 0 0
218 1 -10.5963 -4.105029 15.761662 0 0 0
219 1 -11.020445 -2.771753 15.761662 0 0 0
220 1 11.170175 -2.088068 15.761662 0 0 0
221 1 10.828912 -3.444925 15.761662 0 0 0
222 1 9.661581 -5.982198 15.761662 0 0 0
223 1 8.853209 -7.124151 15.761662 0 0 0
224 1 6.848137 -9.068399 15.761662 0 0 0
225 1 5.681831 -9.841221 15.761662 0 0 0
226 1 3.109814 -10.929862 15.761662 0 0 0
227 1 1.743091 -11.229179 15.761662 0 0 0
228 1 -1.048507 -11.315188 15.761662 0 0 0
229 1 -2.431063 -11.100575 15.761662 0 0 0
230 1 -5.06522 -10.172334 15.761662 0 0 0
231 1 -6.276889 -9.472777 15.761662 0 0 0
232 1 -9.661581 -5.982198 16.974098 0 0 0
233 1 -10.323493 -4.74956 16.974098 0 0 0
234 1 -11.170175 -2.088068 16.974098 0 0 0
235 1 -11.34211 -0.699557 16.974098 0 0 0
236 1 11.277532 -1.396461 16.974098 0 0 0
237 1 10.5963 -4.105029 16.974098 0 0 0
238 1 10.011526 -5.376076 16.974098 0 0 0
239 1 8.397848 -7.65565 16.974098 0 0 0
240 1 7.393407 -8.629622 16.974098 0 0 0
241 1 5.06522 -10.172334 16.974098 0 0 0
242 1 3.776768 -10.717689 16.974098 0 0 0
243 1 1.048507 -11.315188 16.974098 0 0 0
244 1 -0.349945 -11.358273 16.974098 0 0 0
245 1 -3.109814 -10.929862 16.974098 0 0 0
246 1 -4.429395 -10.46486 16.974098 0 0 0
247 1 -6.848137 -9.068399 16.974098 0 0 0
248 1 -7.910632 -8.158109 16.974098 0 0 0
249 1 -10.5963 -4.105029 18.186533 0 0 0
250 1 -11.020445 -2.771753 18.186533 0 0 0
251 1 11.170175 -2.088068 18.186533 0 0 0
252 1 10.828912 -3.444925 18.186533 0 0 0
253 1 9.661581 -5.982198 18.186533 0 0 0
254 1 8.853209 -7.124151 18.186533 0 0 0
255 1 6.848137 -9.068399 18.186533 0 0 0
256 1 5.681831 -9.841221 18.186533 0 0 0
257 1 3.109814 -10.929862 18.186533 0 0 0
258 1 1.743091 -11.229179 18.186533 0 0 0
259 1 -1.048507 -11.315188 18.186533 0 0 0
260 1 -2.431063 -11.100575 18.186533 0 0 0
261 1 -5.06522 -10.172334 18.186533 0 0 0
262 1 -6.276889 -9.472777 18.186533 0 0 0
263 1 -8.397848 -7.65565 18.186533 0 0 0
264 1 -9.274987 -6.565627 18.186533 0 0 0
265 1 -11.170175 -2.088068 19.398969 0 0 0
266 1 -11.34211 -0.699557 19.398969 0 0 0
267 1 11.277532 -1.396461 19.398969 0 0 0
268 1 10.5963 -4.105029 19.398969 0 0 0
269 1 10.011526 -5.376076 19.398969 0 0 0
270 1 8.397848 -7.65565 19.398969 0 0 0
271 1 7.393407 -8.629622 19.398969 0 0 0
272 1 5.06522 -10.172334 19.398969 0 0 0
273 1 3.776768 -10.717689 19.398969 0 0 0
274 1 1.048507 -11.315188 19.398969 0 0 0
275 1 -0.349945 -11.358273 19.398969 0 0 0
276 1 -3.109814 -10.929862 19.398969 0 0 0
277 1 -4.429395 -10.46486 19.398969 0 0 0
278 1 -6.848137 -9.068399 19.398969 0 0 0
279 1 -7.910632 -8.158109 19.398969 0 0 0
280 1 -9.661581 -5.982198 19.398969 0 0 0
281 1 -10.323493 -4.74956 19.398969 0 0 0
282 1 11.170175 -2.088068 20.611405 0 0 0
283 1 10.828912 -3.444925 20.611405 0 0 0
284 1 9.661581 -5.982198 20.611405 0 0 0
285 1 8.853209 -7.124151 20.611405 0 0 0
286 1 6.848137 -9.068399 20.611405 0 0 0
287 1 5.681831 -9.841221 20.611405 0 0 0
288 1 3.109814 -10.929862 20.611405 0 0 0
289 1 1.743091 -11.229179 20.611405 0 0 0
290 1 -1.048507 -11.315188 20.611405 0 0 0
291 1 -2.431063 -11.100575 20.611405 0 0 0
292 1 -5.06522 -10.172334 20.611405 0 0 0
293 1 -6.276889 -9.472777 20.611405 0 0 0
294 1 -8.397848 -7.65565 20.611405 0 0 0
295 1 -9.274987 -6.565627 20.611405 0 0 0
296 1 -10.5963 -4.105029 20.611405 0 0 0
297 1 -11.020445 -2.771753 20.611405 0 0 0
298 1 11.277532 -1.396461 21.82384 0 0 0
299 1 10.5963 -4.105029 21.82384 0 0 0
300 1 10.011526 -5.376076 21.82384 0 0 0
301 1 8.397848 -7.65565 21.82384 0 0 0
302 1 7.393407 -8.629622 21.82384 0 0 0
303 1 5.06522 -10.172334 21.82384 0 0 0
304 1 3.776768 -10.717689 21.82384 0 0 0
305 1 1.048507 -11.315188 21.82384 0 0 0
306 1 -0.349945 -11.358273 21.82384 0 0 0
307 1 -3.109814 -10.929862 21.82384 0 0 0
308 1 -4.429395 -10.46486 21.82384 0 0 0
309 1 -6.848137 -9.068399 21.82384 0 0 0
310 1 -7.910632 -8.158109 21.82384 0 0 0
311 1 -9.661581 -5.982198 21.82384 0 0 0
312 1 -10.323493 -4.74956 21.82384 0 0 0
313 1 -11.170175 -2.088068 21.82384 0 0 0
314 1 -11.34211 -0.699557 21.82384 0 0 0
315 1 11.170175 -2.088068 23.036276 0 0 0
316 1 10.828912 -3.444925 23.036276 0 0 0
317 1 9.661581 -5.982198 23.036276 0 0 0
318 1 8.853209 -7.124151 23.036276 0 0 0
319 1 6.848137 -9.068399 23.036276 0 0 0
320 1 5.681831 -9.841221 23.036276 0 0 0
321 1 3.109814 -10.929862 23.036276 0 0 0
322 1 1.743091 -11.229179 23.036276 0 0 0
323 1 -1.048507 -11.315188 23.036276 0 0 0
324 1 -2.431063 -11.100575 23.036276 0 0 0
325 1 -5.06522 -10.172334 23.036276 0 0 0
326 1 -6.276889 -9.472777 23.036276 0 0 0
327 1 -8.397848 -7.65565 23.036276 0 0 0
328 1 -9.274987 -6.565627 23.036276 0 0 0
329 1 -10.5963 -4.105029 23.036276 0 0 0
330 1 -11.020445 -2.771753 23.036276 0 0 0
331 1 11.277532 -1.396461 24.248711 0 0 0
332 1 10.5963 -4.105029 24.248711 0 0 0
333 1 10.011526 -5.376076 24.248711 0 0 0
334 1 8.397848 -7.65565 24.248711 0 0 0
335 1 7.393407 -8.629622 24.248711 0 0 0
336 1 5.06522 -10.172334 24.248711 0 0 0
337 1 3.776768 -10.717689 24.248711 0 0 0
338 1 1.048507 -11.315188 24.248711 0 0 0
339 1 -0.349945 -11.358273 24.248711 0 0 0
340 1 -3.109814 -10.929862 24.248711 0 0 0
341 1 -4.429395 -10.46486 24.248711 0 0 0
342 1 -6.848137 -9.068399 24.248711 0 0 0
343 1 -7.910632 -8.158109 24.248711 0 0 0
344 1 -9.661581 -5.982198 24.248711 0 0 0
345 1 -10.323493 -4.74956 24.248711 0 0 0
346 1 -11.170175 -2.088068 24.248711 0 0 0
347 1 -11.34211 -0.699557 24.248711 0 0 0
348 1 11.170175 -2.088068 25.461147 0 0 0
349 1 10.828912 -3.444925 25.461147 0 0 0
350 1 9.661581 -5.982198 25.461147 0 0 0
351 1 8.853209 -7.124151 25.461147 0 0 0
352 1 6.848137 -9.068399 25.461147 0 0 0
353 1 5.681831 -9.841221 25.461147 0 0 0
354 1 3.109814 -10.929862 25.461147 0 0 0
355 1 1.743091 -11.229179 25.461147 0 0 0
356 1 -1.048507 -11.315188 25.461147 0 0 0
357 1 -2.431063 -11.100575 25.461147 0 0 0
358 1 -5.06522 -10.172334 25.461147 0 0 0
359 1 -6.276889 -9.472777 25.461147 0 0 0
360 1 -8.397848 -7.65565 25.461147 0 0 0
361 1 -9.274987 -6.565627 25.461147 0 0 0
362 1 -10.5963 -4.105029 25.461147 0 0 0
363 1 -11.020445 -2.771753 25.461147 0 0 0
364 1 11.277532 -1.396461 26.673582 0 0 0
365 1 10.5963 -4.105029 26.673582 0 0 0
366 1 10.011526 -5.376076 26.673582 0 0 0
367 1 8.397848 -7.65565 26.673582 0 0 0
368 1 7.393407 -8.629622 26.673582 0 0 0
369 1 5.06522 -10.172334 26.673582 0 0 0
370 1 3.776768 -10.717689 26.673582 0 0 0
371 1 1.048507 -11.315188 26.673582 0 0 0
372 1 -0.349945 -11.358273 26.673582 0 0 0
373 1 -3.109814 -10.929862 26.673582 0 0 0
374 1 -4.429395 -10.46486 26.673582 0 0 0
375 1 -6.848137 -9.068399 26.673582 0 0 0
376 1 -7.910632 -8.158109 26.673582 0 0 0
377 1 -9.661581 -5.982198 26.673582 0 0 0
378 1 -10.323493 -4.74956 26.673582 0 0 0
379 1 -11.170175 -2.088068 26.673582 0 0 0
380 1 -11.34211 -0.699557 26.673582 0 0 0
381 1 11.170175 -2.088068 27.886018 0 0 0
382 1 10.828912 -3.444925 27.886018 0 0 0
383 1 9.661581 -5.982198 27.886018 0 0 0
384 1 8.853209 -7.124151 27.886018 0 0 0
385 1 6.848137 -9.068399 27.886018 0 0 0
386 1 5.681831 -9.841221 27.886018 0 0 0
387 1 3.109814 -10.929862 27.886018 0 0 0
388 1 1.743091 -11.229179 27.886018 0 0 0
389 1 -1.048507 -11.315188 27.886018 0 0 0
390 1 -2.431063 -11.100575 27.886018 0 0 0
391 1 -5.06522 -10.172334 27.886018 0 0 0
392 1 -6.276889 -9.472777 27.886018 0 0 0
393 1 -8.397848 -7.65565 27.886018 0 0 0
394 1 -9.274987 -6.565627 27.886018 0 0 0
395 1 -10.5963 -4.105029 27.886018 0 0 0
396 1 -11.020445 -2.771753 27.886018 0 0 0
397 1 11.277532 -1.396461 29.098454 0 0 0
398 1 10.5963 -4.105029 29.098454 0 0 0
399 1 10.011526 -5.376076 29.098454 0 0 0
400 1 8.397848 -7.65565 29.098454 0 0 0
401 1 7.393407 -8.629622 29.098454 0 0 0
402 1 5.06522 -10.172334 29.098454 0 0 0
403 1 3.776768 -10.717689 29.098454 0 0 0
404 1 1.048507 -11.315188 29.098454 0 0 0
405 1 -0.349945 -11.358273 29.098454 0 0 0
406 1 -3.109814 -10.929862 29.098454 0 0 0
407 1 -4.429395 -10.46486 29.098454 0 0 0
408 1 -6.848137 -9.068399 29.098454 0 0 0
409 1 -7.910632 -8.158109 29.098454 0 0 0
410 1 -9.661581 -5.982198 29.098454 0 0 0
411 1 -10.323493 -4.74956 29.098454 0 0 0
412 1 -11.170175 -2.088068 29.098454 0 0 0
413 1 -11.34211 -0.699557 29.098454 0 0 0
414 1 11.170175 -2.088068 30.310889 0 0 0
415 1 10.828912 -3.444925 30.310889 0 0 0
416 1 9.661581 -5.982198 30.310889 0 0 0
417 1 8.853209 -7.124151 30.310889 0 0 0
418 1 6.848137 -9.068399 30.310889 0 0 0
419 1 5.681831 -9.841221 30.310889 0 0 0
420 1 3.109814 -10.929862 30.310889 0 0 0
421 1 1.743091 -11.229179 30.310889 0 0 0
422 1 -1.048507 -11.315188 30.310889 0 0 0
423 1 -2.431063 -11.100575 30.310889 0 0 0
424 1 -5.06522 -10.172334 30.310889 0 0 0
425 1 -6.276889 -9.472777 30.310889 0 0 0
426 1 -8.397848 -7.65565 30.310889 0 0 0
427 1 -9.274987 -6.565627 30.310889 0 0 0
428 1 -10.5963 -4.105029 30.310889 0 0 0
429 1 -11.020445 -2.771753 30.310889 0 0 0
430 1 11.277532 -1.396461 31.523325 0 0 0
431 1 10.5963 -4.105029 31.523325 0 0 0
432 1 10.011526 -5.376076 31.523325 0 0 0
433 1 8.397848 -7.65565 31.523325 0 0 0
434 1 7.393407 -8.629622 31.523325 0 0 0
435 1 5.06522 -10.172334 31.523325 0 0 0
436 1 3.776768 -10.717689 31.523325 0 0 0
437 1 1.048507 -11.315188 31.523325 0 0 0
438 1 -0.349945 -11.358273 31.523325 0 0 0
439 1 -3.109814 -10.929862 31.523325 0 0 0
440 1 -4.429395 -10.46486 31.523325 0 0 0
441 1 -6.848137 -9.068399 31.523325 0 0 0
442 1 -7.910632 -8.158109 31.523325 0 0 0
443 1 -9.661581 -5.982198 31.523325 0 0 0
444 1 -10.323493 -4.74956 31.523325 0 0 0
445 1 -11.170175 -2.088068 31.523325 0 0 0
446 1 -11.34211 -0.699557 31.523325 0 0 0
447 1 11.170175 -2.088068 32.73576 0 0 0
448 1 10.828912 -3.444925 32.73576 0 0 0
449 1 9.661581 -5.982198 32.73576 0 0 0
450 1 8.853209 -7.124151 32.73576 0 0 0
451 1 6.848137 -9.068399 32.73576 0 0 0
452 1 5.681831 -9.841221 32.73576 0 0 0
453 1 3.109814 -10.929862 32.73576 0 0 0
454 1 1.743091 -11.229179 32.73576 0 0 0
455 1 -1.048507 -11.315188 32.73576 0 0 0
456 1 -2.431063 -11.100575 32.73576 0 0 0
457 1 -5.06522 -10.172334 32.73576 0 0 0
458 1 -6.276889 -9.472777 32.73576 0 0 0
459 1 -8.397848 -7.65565 32.73576 0 0 0
460 1 -9.274987 -6.565627 32.73576 0 0 0
461 1 -10.5963 -4.105029 32.73576 0 0 0
462 1 -11.020445 -2.771753 32.73576 0 0 0
463 1 11.277532 -1.396461 33.948196 0 0 0
464 1 10.5963 -4.105029 33.948196 0 0 0
465 1 10.011526 -5.376076 33.948196 0 0 0
466 1 8.397848 -7.65565 33.948196 0 0 0
467 1 7.393407 -8.629622 33.948196 0 0 0
468 1 5.06522 -10.172334 33.948196 0 0 0
469 1 3.776768 -10.717689 33.948196 0 0 0
470 1 1.048507 -11.315188 33.948196 0 0 0
471 1 -0.349945 -11.358273 33.948196 0 0 0
472 1 -3.109814 -10.929862 33.948196 0 0 0
473 1 -4.429395 -10.46486 33.948196 0 0 0
474 1 -6.848137 -9.068399 33.948196 0 0 0
475 1 -7.910632 -8.158109 33.948196 0 0 0
476 1 -9.661581 -5.982198 33.948196 0 0 0
477 1 -10.323493 -4.74956 33.948196 0 0 0
478 1 -11.170175 -2.088068 33.948196 0 0 0
479 1 -11.34211 -0.699557 33.948196 0 0 0
480 1 11.170175 -2.088068 35.160631 0 0 0
481 1 10.828912 -3.444925 35.160631 0 0 0
482 1 9.661581 -5.982198 35.160631 0 0 0
483 1 8.853209 -7.124151 35.160631 0 0 0
484 1 6.848137 -9.068399 35.160631 0 0 0
485 1 5.681831 -9.841221 35.160631 0 0 0
486 1 3.109814 -10.929862 35.160631 0 0 0
487 1 1.743091 -11.229179 35.160631 0 0 0
488 1 -1.048507 -11.315188 35.160631 0 0 0
489 1 -2.431063 -11.100575 35.160631 0 0 0
490 1 -5.06522 -10.172334 35.160631 0 0 0
491 1 -6.276889 -9.472777 35.160631 0 0 0
492 1 -8.397848 -7.65565 35.160631 0 0 0
493 1 -9.274987 -6.565627 35.160631 0 0 0
494 1 -10.5963 -4.105029 35.160631 0 0 0
495 1 -11.020445 -2.771753 35.160631 0 0 0
496 1 11.277532 -1.396461 36.373067 0 0 0
497 1 10.5963 -4.105029 36.373067 0 0 0
498 1 10.011526 -5.376076 36.373067 0 0 0
499 1 8.397848 -7.65565 36.373067 0 0 0
500 1 7.393407 -8.629622 36.373067 0 0 0
501 1 5.06522 -10.172334 36.373067 0 0 0
502 1 3.776768 -10.717689 36.373067 0 0 0
503 1 1.048507 -11.315188 36.373067 0 0 0
504 1 -0.349945 -11.358273 36.373067 0 0 0
505 1 -3.109814 -10.929862 36.373067 0 0 0
506 1 -4.429395 -10.46486 36.373067 0 0 0
507 1 -6.848137 -9.068399 36.373067 0 0 0
508 1 -7.910632 -8.158109 36.373067 0 0 0
509 1 -9.661581 -5.982198 36.373067 0 0 0
510 1 -10.323493 -4.74956 36.373067 0 0 0
511 1 -11.170175 -2.088068 36.373067 0 0 0
512 1 -11.34211 -0.699557 36.373067 0 0 0
513 1 11.170175 -2.088068 37.585503 0 0 0
514 1 10.828912 -3.444925 37.585503 0 0 0
515 1 9.661581 -5.982198 37.585503 0 0 0
516 1 8.853209 -7.124151 37.585503 0 0 0
517 1 6.848137 -9.068399 37.585503 0 0 0
518 1 5.681831 -9.841221 37.585503 0 0 0
519 1 3.109814 -10.929862 37.585503 0 0 0
520 1 1.743091 -11.229179 37.585503 0 0 0
521 1 -1.048507 -11.315188 37.585503 0 0 0
522 1 -2.431063 -11.100575 37.585503 0 0 0
523 1 -5.06522 -10.172334 37.585503 0 0 0
524 1 -6.276889 -9.472777 37.585503 0 0 0
525 1 -8.397848 -7.65565 37.585503 0 0 0
526 1 -9.274987 -6.565627 37.585503 0 0 0
527 1 -10.5963 -4.105029 37.585503 0 0 0
528 1 -11.020445 -2.771753 37.585503 0 0 0
529 1 11.277532 -1.396461 38.797938 0 0 0
530 1 10.5963 -4.105029 38.797938 0 0 0
531 1 10.011526 -5.376076 38.797938 0 0 0
532 1 8.397848 -7.65565 38.797938 0 0 0
533 1 7.393407 -8.629622 38.797938 0 0 0
534 1 5.06522 -10.172334 38.797938 0 0 0
535 1 3.776768 -10.717689 38.797938 0 0 0
536 1 1.048507 -11.315188 38.797938 0 0 0
537 1 -0.349945 -11.358273 38.797938 0 0 0
538 1 -3.109814 -10.929862 38.797938 0 0 0
539 1 -4.429395 -10.46486 38.797938 0 0 0
540 1 -6.848137 -9.068399 38.797938 0 0 0
541 1 -7.910632 -8.158109 38.797938 0 0 0
542 1 -9.661581 -5.982198 38.797938 0 0 0
543 1 -10.323493 -4.74956 38.797938 0 0 0
544 1 -11.170175 -2.088068 38.797938 0 0 0
545 1 -11.34211 -0.699557 38.797938 0 0 0
546 1 11.170175 -2.088068 40.010374 0 0 0
547 1 10.828912 -3.444925 40.010374 0 0 0
548 1 9.661581 -5.982198 40.010374 0 0 0
549 1 8.853209 -7.124151 40.010374 0 0 0
550 1 6.848137 -9.068399 40.010374 0 0 0
551 1 5.681831 -9.841221 40.010374 0 0 0
552 1 3.109814 -10.929862 40.010374 0 0 0
553 1 1.743091 -11.229179 40.010374 0 0 0
554 1 -1.048507 -11.315188 40.010374 0 0 0
555 1 -2.431063 -11.100575 40.010374 0 0 0
556 1 -5.06522 -10.172334 40.010374 0 0 0
557 1 -6.276889 -9.472777 40.010374 0 0 0
558 1 -8.397848 -7.65565 40.010374 0 0 0
559 1 -9.274987 -6.565627 40.010374 0 0 0
560 1 -10.5963 -4.105029 40.010374 0 0 0
561 1 -11.020445 -2.771753 40.010374 0 0 0
562 1 11.277532 -1.396461 41.222809 0 0 0
563 1 10.5963 -4.105029 41.222809 0 0 0
564 1 10.011526 -5.376076 41.222809 0 0 0
565 1 8.397848 -7.65565 41.222809 0 0 0
566 1 7.393407 -8.629622 41.222809 0 0 0
567 1 5.06522 -10.172334 41.222809 0 0 0
568 1 3.776768 -10.717689 41.222809 0 0 0
569 1 1.048507 -11.315188 41.222809 0 0 0
570 1 -0.349945 -11.358273 41.222809 0 0 0
571 1 -3.109814 -10.929862 41.222809 0 0 0
572 1 -4.429395 -10.46486 41.222809 0 0 0
573 1 -6.848137 -9.068399 41.222809 0 0 0
574 1 -7.910632 -8.158109 41.222809 0 0 0
575 1 -9.661581 -5.982198 41.222809 0 0 0
576 1 -10.323493 -4.74956 41.222809 0 0 0
577 1 -11.170175 -2.088068 41.222809 0 0 0
578 1 -11.34211 -0.699557 41.222809 0 0 0
579 1 11.170175 -2.088068 -1.2124353507999999 0 0 1
580 1 10.828912 -3.444925 -1.2124353507999999 0 0 1
581 1 9.661581 -5.982198 -1.2124353507999999 0 0 1
582 1 8.853209 -7.124151 -1.2124353507999999 0 0 1
583 1 6.848137 -9.068399 -1.2124353507999999 0 0 1
584 1 5.681831 -9.841221 -1.2124353507999999 0 0 1
585 1 3.109814 -10.929862 -1.2124353507999999 0 0 1
586 1 1.743091 -11.229179 -1.2124353507999999 0 0 1
587 1 -1.048507 -11.315188 -1.2124353507999999 0 0 1
588 1 -2.431063 -11.100575 -1.2124353507999999 0 0 1
589 1 -5.06522 -10.172334 -1.2124353507999999 0 0 1
590 1 -6.276889 -9.472777 -1.2124353507999999 0 0 1
591 1 -8.397848 -7.65565 -1.2124353507999999 0 0 1
592 1 -9.274987 -6.565627 -1.2124353507999999 0 0 1
593 1 -10.5963 -4.105029 -1.2124353507999999 0 0 1
594 1 -11.020445 -2.771753 -1.2124353507999999 0 0 1
595 1 11.363663 0 0 0 0 0
596 1 -11.170175 2.088068 0 0 0 0
597 1 -10.828912 3.444925 0 0 0 0
598 1 -9.661581 5.982198 0 0 0 0
599 1 -8.853209 7.124151 0 0 0 0
600 1 -6.848137 9.068399 0 0 0 0
601 1 -5.681831 9.841221 0 0 0 0
602 1 -3.109814 10.929862 0 0 0 0
603 1 -1.743091 11.229179 0 0 0 0
604 1 1.048507 11.315188 0 0 0 0
605 1 2.431063 11.100575 0 0 0 0
606 1 5.06522 10.172334 0 0 0 0
607 1 6.276889 9.472777 0 0 0 0
608 1 8.397848 7.65565 0 0 0 0
609 1 9.274987 6.565627 0 0 0 0
610 1 10.5963 4.105029 0 0 0 0
611 1 11.020445 2.771753 0 0 0 0
612 1 -11.363663 0 1.212436 0 0 0
613 1 -11.277532 1.396461 1.212436 0 0 0
614 1 -10.5963 4.105029 1.212436 0 0 0
615 1 -10.011526 5.376076 1.212436 0 0 0
616 1 -8.397848 7.65565 1.212436 0 0 0
617 1 -7.393407 8.629622 1.212436 0 0 0
618 1 -5.06522 10.172334 1.212436 0 0 0
619 1 -3.776768 10.717689 1.212436 0 0 0
620 1 -1.048507 11.315188 1.212436 0 0 0
621 1 0.349945 11.358273 1.212436 0 0 0
622 1 3.109814 10.929862 1.212436 0 0 0
623 1 4.429395 10.46486 1.212436 0 0 0
624 1 6.848137 9.068399 1.212436 0 0 0
625 1 7.910632 8.158109 1.212436 0 0 0
626 1 9.661581 5.982198 1.212436 0 0 0
627 1 10.323493 4.74956 1.212436 0 0 0
628 1 11.170175 2.088068 1.212436 0 0 0
629 1 11.34211 0.699557 1.212436 0 0 0
630 1 -11.170175 2.088068 2.424871 0 0 0
631 1 -10.828912 3.444925 2.424871 0 0 0
632 1 -9.661581 5.982198 2.424871 0 0 0
633 1 -8.853209 7.124151 2.424871 0 0 0
634 1 -6.848137 9.068399 2.424871 0 0 0
635 1 -5.681831 9.841221 2.424871 0 0 0
636 1 -3.109814 10.929862 2.424871 0 0 0
637 1 -1.743091 11.229179 2.424871 0 0 0
638 1 1.048507 11.315188 2.424871 0 0 0
639 1 2.431063 11.100575 2.424871 0 0 0
640 1 5.06522 10.172334 2.424871 0 0 0
641 1 6.276889 9.472777 2.424871 0 0 0
642 1 8.397848 7.65565 2.424871 0 0 0
643 1 9.274987 6.565627 2.424871 0 0 0
644 1 10.5963 4.105029 2.424871 0 0 0
645 1 11.020445 2.771753 2.424871 0 0 0
646 1 11.363663 0 2.424871 0 0 0
647 1 -11.363663 0 3.637307 0 0 0
648 1 -11.277532 1.396461 3.637307 0 0 0
649 1 -10.5963 4.105029 3.637307 0 0 0
650 1 -10.011526 5.376076 3.637307 0 0 0
651 1 -8.397848 7.65565 3.637307 0 0 0
652 1 -7.393407 8.629622 3.637307 0 0 0
653 1 -5.06522 10.172334 3.637307 0 0 0
654 1 -3.776768 10.717689 3.637307 0 0 0
655 1 -1.048507 11.315188 3.637307 0 0 0
656 1 0.349945 11.358273 3.637307 0 0 0
657 1 3.109814 10.929862 3.637307 0 0 0
658 1 4.429395 10.46486 3.637307 0 0 0
659 1 6.848137 9.068399 3.637307 0 0 0
660 1 7.910632 8.158109 3.637307 0 0 0
661 1 9.661581 5.982198 3.637307 0 0 0
662 1 10.323493 4.74956 3.637307 0 0 0
663 1 11.170175 2.088068 3.637307 0 0 0
664 1 11.34211 0.699557 3.637307 0 0 0
665 1 -11.170175 2.088068 4.849742 0 0 0
666 1 -10.828912 3.444925 4.849742 0 0 0
667 1 -9.661581 5.982198 4.849742 0 0 0
668 1 -8.853209 7.124151 4.849742 0 0 0
669 1 -6.848137 9.068399 4.849742 0 0 0
670 1 -5.681831 9.841221 4.849742 0 0 0
671 1 -3.109814 10.929862 4.849742 0 0 0
672 1 -1.743091 11.229179 4.849742 0 0 0
673 1 1.048507 11.315188 4.849742 0 0 0
674 1 2.431063 11.100575 4.849742 0 0 0
675 1 5.06522 10.172334 4.849742 0 0 0
676 1 6.276889 9.472777 4.849742 0 0 0
677 1 8.397848 7.65565 4.849742 0 0 0
678 1 9.274987 6.565627 4.849742 0 0 0
679 1 10.5963 4.105029 4.849742 0 0 0
680 1 11.020445 2.771753 4.849742 0 0 0
681 1 11.363663 0 4.849742 0 0 0
682 1 -11.363663 0 6.062178 0 0 0
683 1 -11.277532 1.396461 6.062178 0 0 0
684 1 -10.5963 4.105029 6.062178 0 0 0
685 1 -10.011526 5.376076 6.062178 0 0 0
686 1 -8.397848 7.65565 6.062178 0 0 0
687 1 -7.393407 8.629622 6.062178 0 0 0
688 1 -5.06522 10.172334 6.062178 0 0 0
689 1 -3.776768 10.717689 6.062178 0 0 0
690 1 -1.048507 11.315188 6.062178 0 0 0
691 1 0.349945 11.358273 6.062178 0 0 0
692 1 3.109814 10.929862 6.062178 0 0 0
693 1 4.429395 10.46486 6.062178 0 0 0
694 1 6.848137 9.068399 6.062178 0 0 0
695 1 7.910632 8.158109 6.062178 0 0 0
696 1 9.661581 5.982198 6.062178 0 0 0
697 1 10.323493 4.74956 6.062178 0 0 0
698 1 11.170175 2.088068 6.062178 0 0 0
699 1 11.34211 0.699557 6.062178 0 0 0
700 1 -11.170175 2.088068 7.274613 0 0 0
701 1 -10.828912 3.444925 7.274613 0 0 0
702 1 -9.661581 5.982198 7.274613 0 0 0
703 1 -8.853209 7.124151 7.274613 0 0 0
704 1 -6.848137 9.068399 7.274613 0 0 0
705 1 -5.681831 9.841221 7.274613 0 0 0
706 1 -3.109814 10.929862 7.274613 0 0 0
707 1 -1.743091 11.229179 7.274613 0 0 0
708 1 1.048507 11.315188 7.274613 0 0 0
709 1 2.431063 11.100575 7.274613 0 0 0
710 1 5.06522 10.172334 7.274613 0 0 0
711 1 6.276889 9.472777 7.274613 0 0 0
712 1 8.397848 7.65565 7.274613 0 0 0
713 1 9.274987 6.565627 7.274613 0 0 0
714 1 10.5963 4.105029 7.274613 0 0 0
715 1 11.020445 2.771753 7.274613 0 0 0
716 1 11.363663 0 7.274613 0 0 0
717 1 -11.363663 0 8.487049 0 0 0
718 1 -11.277532 1.396461 8.487049 0 0 0
719 1 -10.5963 4.105029 8.487049 0 0 0
720 1 -10.011526 5.376076 8.487049 0 0 0
721 1 -8.397848 7.65565 8.487049 0 0 0
722 1 -7.393407 8.629622 8.487049 0 0 0
723 1 -5.06522 10.172334 8.487049 0 0 0
724 1 -3.776768 10.717689 8.487049 0 0 0
725 1 -1.048507 11.315188 8.487049 0 0 0
726 1 0.349945 11.358273 8.487049 0 0 0
727 1 3.109814 10.929862 8.487049 0 0 0
728 1 4.429395 10.46486 8.487049 0 0 0