LAMMPS (2 Aug 2023 - Update 3)
OMP_NUM_THREADS environment is not set. Defaulting to 1 thread. (src/comm.cpp:98)
  using 1 OpenMP thread(s) per MPI task

# 1------general---------------
units                             metal      #单位为lammps 中的metel 类型
dimension                    3          #模拟的维度 三维
boundary                    p p p      #周期边界条件
atom_style                  atomic   #原子类型自动
atom_modify              map array sort 100 2.0
neighbor                    3.0 bin
neigh_modify            every 1 delay 0 check yes
#2 -----global variable-------定义全局变量，方便统一修改；
variable temperature equal 300
variable tstep equal 0.001
variable pressure equal 0
variable thermalstep equal 100
variable dumpstep equal 1000
variable relaxtime equal 0
variable totaltime equal 100000
variable deformrate equal 5e-3
#3 -------model------------
#box tilt large
read_data     1.lmp
Reading data file ...
  orthogonal box = (-100 -100 -2.331251) to (100 100 38.891558)
  3 by 4 by 1 MPI processor grid
  reading atoms ...
  920 atoms
  read_data CPU = 0.024 seconds
replicate 1 1 7
Replication is creating a 1x1x7 = 7 times larger system...
  orthogonal box = (-100 -100 -2.331251) to (100 100 286.22841)
  2 by 2 by 3 MPI processor grid
  6440 atoms
  replicate CPU = 0.007 seconds
group SR type 2
1680 atoms in group SR
delete_atoms group SR
Deleted 1680 atoms, new total = 4760

write_data l.data
System init for write_data ...
WARNING: Communication cutoff is 0.0. No ghost atoms will be generated. Atoms may get lost. (src/comm_brick.cpp:210)

pair_style hybrid airebo 3.0 airebo 3.0  lj/cut 10
pair_coeff * * airebo 1 CH.airebo C NULL
Reading airebo potential file CH.airebo with DATE: 2011-10-25
pair_coeff * * airebo 2 CH.airebo NULL C
Reading airebo potential file CH.airebo with DATE: 2011-10-25
pair_coeff 1 2 lj/cut 0.00456 3.431

# 5------minimize -----------
min_style      sd
minimize       1.0e-4 1.0e-6 100 1000
Neighbor list info ...
  update: every = 1 steps, delay = 0 steps, check = yes
  max neighbors/atom: 2000, page size: 100000
  master list distance cutoff = 13.2
  ghost atom cutoff = 13.2
  binsize = 6.6, bins = 31 31 44
  5 neighbor lists, perpetual/occasional/extra = 5 0 0
  (1) pair airebo, perpetual, skip from (4)
      attributes: full, newton on, ghost
      pair build: skip/ghost
      stencil: none
      bin: none
  (2) pair airebo, perpetual, skip from (4)
      attributes: full, newton on, ghost
      pair build: skip/ghost
      stencil: none
      bin: none
  (3) pair lj/cut, perpetual, skip from (5)
      attributes: half, newton on, cut 13
      pair build: skip
      stencil: none
      bin: none
  (4) neighbor class addition, perpetual
      attributes: full, newton on, ghost
      pair build: full/bin/ghost
      stencil: full/ghost/bin/3d
      bin: standard
  (5) neighbor class addition, perpetual
      attributes: half, newton on, cut 13
      pair build: half/bin/atomonly/newton
      stencil: half/bin/3d
      bin: standard
Per MPI rank memory allocation (min/avg/max) = 9.343 | 9.343 | 9.344 Mbytes
   Step          Temp          E_pair         E_mol          TotEng         Press     
         0   0             -35221.976      0             -35221.976     -0.21847277   
         1   0             -35222.145      0             -35222.145     -0.39920433   
Loop time of 0.0607758 on 12 procs for 1 steps with 4760 atoms

81.5% CPU use with 12 MPI tasks x 1 OpenMP threads

Minimization stats:
  Stopping criterion = energy tolerance
  Energy initial, next-to-last, final = 
      -35221.975583182   -35221.975583182  -35222.1445569096
  Force two-norm initial, final = 6.7754333 0.64925995
  Force max component initial, final = 0.098019031 0.0093756234
  Final line search alpha, max atom move = 1 0.0093756234
  Iterations, force evaluations = 1 2

MPI task timing breakdown:
Section |  min time  |  avg time  |  max time  |%varavg| %total
---------------------------------------------------------------
Pair    | 0.015147   | 0.020012   | 0.041749   |   4.7 | 32.93
Neigh   | 0          | 0          | 0          |   0.0 |  0.00
Comm    | 0.0010582  | 0.024893   | 0.033939   |   5.0 | 40.96
Output  | 0          | 0          | 0          |   0.0 |  0.00
Modify  | 0          | 0          | 0          |   0.0 |  0.00
Other   |            | 0.01587    |            |       | 26.11

Nlocal:        396.667 ave         440 max         355 min
Histogram: 3 0 0 0 4 2 0 0 0 3
Nghost:        1623.33 ave        1665 max        1580 min
Histogram: 3 0 0 0 2 4 0 0 0 3
Neighs:              0 ave           0 max           0 min
Histogram: 12 0 0 0 0 0 0 0 0 0

Total # of neighbors = 0
Ave neighs/atom = 0
Neighbor list builds = 0
Dangerous builds = 0
#6----define computes------
variable nums equal count(all) #计算原子数目
variable toval equal 13.369*13.369*lz #计算系统总体积，单层石墨烯厚度为0.335nm
variable vol equal ${toval} #体系的初始体积
variable vol equal 51574.3150260957 
variable vatom equal v_vol/v_nums #单个原子体积
compute 1 all stress/atom NULL #计算体系中单原子应力
compute xalls all reduce sum c_1[1]
variable xstress equal (c_xalls)/(v_toval*10000)
compute yalls all reduce sum c_1[2]
variable ystress equal (c_yalls)/(v_toval*10000)
compute zalls all reduce sum c_1[3]
variable zstress equal (c_zalls)/(v_toval*10000)
#7---------relaxation-------------------------
timestep ${tstep}
timestep 0.001
#------------5 温度初始化------------------------------
velocity all create 300 4928459 dist gaussian units box
#------------------------------------------------------
dump   1 all atom 100 all-cy.lammpstrj
#fix    1 all npt temp 300 300  0.1 aniso 0 0  drag 1  #三个方向独立控压
fix  s all npt temp ${temperature} ${temperature} 0.1 y ${pressure} ${pressure} 10 x ${pressure} ${pressure} 10
fix  s all npt temp 300 ${temperature} 0.1 y ${pressure} ${pressure} 10 x ${pressure} ${pressure} 10
fix  s all npt temp 300 300 0.1 y ${pressure} ${pressure} 10 x ${pressure} ${pressure} 10
fix  s all npt temp 300 300 0.1 y 0 ${pressure} 10 x ${pressure} ${pressure} 10
fix  s all npt temp 300 300 0.1 y 0 0 10 x ${pressure} ${pressure} 10
fix  s all npt temp 300 300 0.1 y 0 0 10 x 0 ${pressure} 10
fix  s all npt temp 300 300 0.1 y 0 0 10 x 0 0 10
thermo                1000
thermo_modify       lost ignore
compute  2 all pe/atom
compute  pe all reduce sum c_2
variable PE equal "c_pe"
fix    pe all print 100 "${PE} " file PE.txt screen no
thermo  ${thermalstep}
thermo  100
#thermo_style  custom step pe ke etotal lx ly lz
run   ${relaxtime}
run   0
Per MPI rank memory allocation (min/avg/max) = 9.968 | 9.968 | 9.969 Mbytes
   Step          Temp          E_pair         E_mol          TotEng         Press          Volume    
         1   300           -35222.145      0             -35037.6        16.678327      11542387     
Loop time of 0.0233626 on 12 procs for 0 steps with 4760 atoms

64.0% CPU use with 12 MPI tasks x 1 OpenMP threads

MPI task timing breakdown:
Section |  min time  |  avg time  |  max time  |%varavg| %total
---------------------------------------------------------------
Pair    | 0          | 0          | 0          |   0.0 |  0.00
Neigh   | 0          | 0          | 0          |   0.0 |  0.00
Comm    | 0          | 0          | 0          |   0.0 |  0.00
Output  | 0          | 0          | 0          |   0.0 |  0.00
Modify  | 0          | 0          | 0          |   0.0 |  0.00
Other   |            | 0.02336    |            |       |100.00

Nlocal:        396.667 ave         400 max         395 min
Histogram: 8 0 0 0 0 0 0 0 0 4
Nghost:        1623.33 ave        1625 max        1620 min
Histogram: 4 0 0 0 0 0 0 0 0 8
Neighs:              0 ave           0 max           0 min
Histogram: 12 0 0 0 0 0 0 0 0 0

Total # of neighbors = 0
Ave neighs/atom = 0
Neighbor list builds = 0
Dangerous builds = 0
#8 -------tension-----------------------------
unfix s
undump  1
unfix  pe
reset_timestep 0
fix avestress all ave/atom 1 ${dumpstep} ${dumpstep} c_1[1] c_1[2] c_1[3] c_1[4] c_1[5] c_1[6]
fix avestress all ave/atom 1 1000 ${dumpstep} c_1[1] c_1[2] c_1[3] c_1[4] c_1[5] c_1[6]
fix avestress all ave/atom 1 1000 1000 c_1[1] c_1[2] c_1[3] c_1[4] c_1[5] c_1[6]

#-----calculation of strain and Cumulative compression--------
variable                tmp equal "lz"
variable                L0 equal ${tmp}
variable                L0 equal 288.559663
variable                strain equal "(lz - v_L0)/v_L0"
variable                Cumulativels equal "(lz - v_L0)/10"
fix Step all print 100 "${strain} ${Cumulativels} ${zstress}" file grapoten.txt screen no

dump 2 all custom ${dumpstep} tension.xyz type x y z f_avestress[1] f_avestress[2] f_avestress[3] f_avestress[4] f_avestress[5] f_avestress[6]
dump 2 all custom 1000 tension.xyz type x y z f_avestress[1] f_avestress[2] f_avestress[3] f_avestress[4] f_avestress[5] f_avestress[6]

fix  1 all npt temp ${temperature} ${temperature} 0.1 y ${pressure} ${pressure} 10 x ${pressure} ${pressure} 10
fix  1 all npt temp 300 ${temperature} 0.1 y ${pressure} ${pressure} 10 x ${pressure} ${pressure} 10
fix  1 all npt temp 300 300 0.1 y ${pressure} ${pressure} 10 x ${pressure} ${pressure} 10
fix  1 all npt temp 300 300 0.1 y 0 ${pressure} 10 x ${pressure} ${pressure} 10
fix  1 all npt temp 300 300 0.1 y 0 0 10 x ${pressure} ${pressure} 10
fix  1 all npt temp 300 300 0.1 y 0 0 10 x 0 ${pressure} 10
fix  1 all npt temp 300 300 0.1 y 0 0 10 x 0 0 10

thermo_style custom step pe ke etotal lx ly lz
WARNING: New thermo_style command, previous thermo_modify settings will be lost (src/output.cpp:903)
fix   2 all deform 1 z erate ${deformrate} remap x units box
fix   2 all deform 1 z erate 0.005 remap x units box
fix   3 all ave/time 2 500 1000 v_xstress v_ystress v_zstress file pressure.out
run   ${totaltime}
run   100000
WARNING: Dump 2 includes no atom IDs and is not sorted by ID. This may complicate post-processing tasks or visualization (src/dump.cpp:221)
Per MPI rank memory allocation (min/avg/max) = 11.47 | 11.47 | 11.47 Mbytes
   Step         PotEng         KinEng         TotEng           Lx             Ly             Lz      
         0  -35222.145      184.54471     -35037.6        200            200            288.55966    
       100  -35113.738      91.333682     -35022.404      200.00182      200.0006       288.70394    
       200  -35116.127      115.36635     -35000.761      199.99549      199.99326      288.84822    
       300  -35100.401      125.40884     -34974.993      199.9979       199.9949       288.9925     
       400  -35082.852      136.17356     -34946.678      199.991        199.98734      289.13678    
       500  -35069.98       152.67893     -34917.301      199.99373      199.9898       289.28106    
       600  -35056.554      167.8924      -34888.662      199.98406      199.98094      289.42534    
       700  -35044.139      180.89674     -34863.242      199.9874       199.98522      289.56962    
       800  -35034          188.92801     -34845.072      199.97695      199.97645      289.7139     
       900  -35029.974      192.09498     -34837.879      199.97915      199.98042      289.85818    
      1000  -35033.189      188.20232     -34844.987      199.96845      199.97192      290.00246    
      1100  -35038.06       181.18127     -34856.878      199.96817      199.97446      290.14674    
      1200  -35041.521      179.90101     -34861.62       199.95807      199.96737      290.29102    
      1300  -35036.57       179.68228     -34856.888      199.95752      199.96983      290.4353     
      1400  -35033.961      187.5237      -34846.437      199.94694      199.96231      290.57958    
      1500  -35028.637      189.65448     -34838.982      199.94542      199.96327      290.72386    
      1600  -35027.434      188.02425     -34839.41       199.93523      199.95547      290.86814    
      1700  -35029.976      183.27585     -34846.7        199.93431      199.95662      291.01242    
      1800  -35033.285      180.82445     -34852.461      199.92344      199.94707      291.1567     
      1900  -35031.946      180.69072     -34851.256      199.92319      199.94781      291.30098    
      2000  -35026.565      183.14622     -34843.419      199.91217      199.93699      291.44526    
      2100  -35021.234      186.92772     -34834.307      199.91205      199.93726      291.58954    
      2200  -35018.611      187.08363     -34831.527      199.9016       199.9267       291.73382    
      2300  -35022.421      185.52955     -34836.891      199.90049      199.92535      291.8781     
      2400  -35026.192      183.91384     -34842.279      199.88955      199.91376      292.02238    
      2500  -35020.546      178.55845     -34841.988      199.88853      199.91157      292.16666    
      2600  -35018.722      184.01037     -34834.712      199.87832      199.90002      292.31094    
      2700  -35013.108      186.54098     -34826.567      199.87644      199.89659      292.45522    
      2800  -35009.211      185.87997     -34823.331      199.86514      199.88371      292.5995     
      2900  -35010.032      183.79518     -34826.236      199.86287      199.88036      292.74378    
      3000  -35013.358      182.92749     -34830.431      199.85049      199.86714      292.88806    
      3100  -35013.496      183.2929      -34830.203      199.84797      199.8639       293.03234    
      3200  -35008.83       183.94946     -34824.881      199.83382      199.85017      293.17662    
      3300  -35005.325      187.64314     -34817.681      199.82999      199.84677      293.3209     
      3400  -34997.281      183.78519     -34813.495      199.81589      199.83361      293.46518    
      3500  -34998.45       183.56344     -34814.886      199.81081      199.82938      293.60946    
      3600  -35003.213      184.95736     -34818.256      199.79611      199.81592      293.75374    
      3700  -34999.142      180.56827     -34818.574      199.78953      199.81124      293.89802    
      3800  -34993.749      180.47652     -34813.272      199.77449      199.79813      294.0423     
      3900  -34995.087      189.18899     -34805.898      199.76768      199.79331      294.18658    
      4000  -34991.943      190.89832     -34801.044      199.75268      199.77976      294.33086    
      4100  -34990.109      188.90919     -34801.2        199.74472      199.77307      294.47514    
      4200  -34985.323      182.29722     -34803.026      199.72998      199.75923      294.61942    
      4300  -34985.199      182.08702     -34803.112      199.72216      199.75231      294.7637     
      4400  -34982.886      183.56165     -34799.324      199.70685      199.73736      294.90798    
      4500  -34977.49       184.17532     -34793.314      199.69905      199.72977      295.05226    
      4600  -34976.289      188.34006     -34787.949      199.68373      199.71414      295.19654    
      4700  -34970.487      184.80362     -34785.683      199.67523      199.70504      295.34082    
      4800  -34971.645      185.87917     -34785.766      199.66069      199.68977      295.48509    
      4900  -34968.668      181.79747     -34786.87       199.65164      199.67923      295.62937    
      5000  -34966.4        181.73316     -34784.667      199.6367       199.66294      295.77365    
      5100  -34961.735      182.83798     -34778.897      199.62769      199.65195      295.91793    
      5200  -34960.721      188.65215     -34772.068      199.61272      199.63569      296.06221    
      5300  -34954.773      186.32342     -34768.449      199.60274      199.62462      296.20649    
      5400  -34950.939      182.81954     -34768.12       199.58728      199.60842      296.35077    
      5500  -34951.444      183.05258     -34768.391      199.57578      199.59706      296.49505    
      5600  -34952.665      186.75552     -34765.91       199.56         199.5817       296.63933    
      5700  -34944.87       183.88966     -34760.98       199.5472       199.57019      296.78361    
      5800  -34941.378      187.15648     -34754.221      199.53062      199.5555       296.92789    
      5900  -34937.358      188.33623     -34749.022      199.51556      199.54317      297.07217    
      6000  -34932.204      185.78534     -34746.418      199.49784      199.52873      297.21645    
      6100  -34929.764      183.55742     -34746.207      199.48149      199.51617      297.36073    
      6200  -34928.314      183.20841     -34745.105      199.46316      199.50178      297.50501    
      6300  -34924.952      183.64919     -34741.303      199.44567      199.48814      297.64929    
      6400  -34917.934      183.00628     -34734.928      199.42684      199.47306      297.79357    
      6500  -34914.934      186.33267     -34728.601      199.40901      199.45815      297.93785    
      6600  -34909.155      184.49223     -34724.663      199.39043      199.44223      298.08213    
      6700  -34907.878      183.96573     -34723.913      199.37139      199.42491      298.22641    
      6800  -34902.825      179.4163      -34723.408      199.35286      199.40754      298.37069    
      6900  -34903.412      182.97345     -34720.438      199.33364      199.38851      298.51497    
      7000  -34897.975      184.41711     -34713.558      199.31539      199.37         298.65925    
      7100  -34893.939      187.98719     -34705.951      199.29563      199.34913      298.80353    
      7200  -34888.351      186.94049     -34701.41       199.27707      199.32911      298.94781    
      7300  -34886.762      186.40119     -34700.361      199.25611      199.30677      299.09209    
      7400  -34880.578      181.16513     -34699.413      199.23717      199.28588      299.23637    
      7500  -34879.854      184.1016      -34695.752      199.21471      199.26212      299.38065    
      7600  -34871.634      183.64578     -34687.988      199.19485      199.24106      299.52493    
      7700  -34867.435      187.83898     -34679.596      199.17077      199.21584      299.66921    
      7800  -34866.091      189.21299     -34676.878      199.14979      199.19394      299.81349    
      7900  -34863.066      187.99119     -34675.075      199.12435      199.16803      299.95777    
      8000  -34852.64       180.1568      -34672.483      199.10216      199.146        300.10205    
      8100  -34852.345      183.17179     -34669.173      199.07459      199.11921      300.24633    
      8200  -34851.008      185.48396     -34665.524      199.05141      199.09721      300.39061    
      8300  -34845.593      184.09225     -34661.501      199.02272      199.07017      300.53489    
      8400  -34843.329      186.96221     -34656.367      198.9977       199.04734      300.67917    
      8500  -34833.812      184.1925      -34649.62       198.96879      199.0205       300.82345    
      8600  -34828.891      186.11733     -34642.774      198.94202      198.99602      300.96773    
      8700  -34823.373      185.48013     -34637.893      198.91242      198.96887      301.11201    
      8800  -34822.254      183.87465     -34638.379      198.88431      198.9433       301.25629    
      8900  -34818.823      183.07909     -34635.744      198.85351      198.91523      301.40057    
      9000  -34813.786      184.7571      -34629.029      198.82474      198.88896      301.54485    
      9100  -34805.28       184.95403     -34620.326      198.79288      198.85963      301.68913    
      9200  -34802.063      187.46336     -34614.6        198.76316      198.83221      301.83341    
      9300  -34797.125      186.37533     -34610.75       198.73049      198.80095      301.97769    
      9400  -34790.817      183.3728      -34607.445      198.70033      198.77208      302.12197    
      9500  -34788.048      183.48566     -34604.562      198.66703      198.73916      302.26625    
      9600  -34781.984      180.1953      -34601.789      198.63555      198.70801      302.41053    
      9700  -34779.247      181.73241     -34597.514      198.60241      198.67482      302.55481    
      9800  -34773.874      185.93732     -34587.937      198.56932      198.6414       302.69909    
      9900  -34766.551      187.26906     -34579.282      198.53528      198.60701      302.84337    
     10000  -34760.197      186.26674     -34573.931      198.50066      198.57183      302.98765    
     10100  -34756.061      185.10955     -34570.951      198.46502      198.53601      303.13193    
     10200  -34752.225      181.50232     -34570.722      198.42903      198.49986      303.27621    
     10300  -34748.946      183.39994     -34565.546      198.39092      198.46207      303.42049    
     10400  -34740.014      184.00372     -34556.011      198.35339      198.42512      303.56477    
     10500  -34731.467      182.52555     -34548.942      198.31309      198.38608      303.70905    
     10600  -34728.083      185.8912      -34542.192      198.27375      198.34761      303.85333    
     10700  -34721.742      185.72508     -34536.017      198.23242      198.30758      303.9976     
     10800  -34719.546      188.03011     -34531.516      198.18987      198.26655      304.14188    
     10900  -34715.792      185.8403      -34529.952      198.14802      198.22621      304.28616    
     11000  -34708.009      181.66784     -34526.342      198.10282      198.18287      304.43044    
     11100  -34701.46       183.8343      -34517.626      198.06036      198.14235      304.57472    
     11200  -34694.552      187.88147     -34506.671      198.013        198.09704      304.719      
     11300  -34686.724      185.39799     -34501.326      197.96968      198.05579      304.86328    
     11400  -34683.847      185.83426     -34498.013      197.92068      198.00884      305.00756    
     11500  -34675.312      180.47383     -34494.839      197.87601      197.9663       305.15184    
     11600  -34675.767      186.1308      -34489.636      197.82592      197.91848      305.29612    
     11700  -34665.047      184.68037     -34480.367      197.77985      197.87439      305.4404     
     11800  -34655.055      184.88098     -34470.174      197.72907      197.82554      305.58468    
     11900  -34651.103      185.54287     -34465.56       197.6815       197.77994      305.72896    
     12000  -34647.424      183.67033     -34463.754      197.62945      197.72956      305.87324    
     12100  -34640.857      181.88178     -34458.975      197.58118      197.68301      306.01752    
     12200  -34636.263      184.69262     -34451.57       197.52843      197.63158      306.1618     
     12300  -34629.153      185.9755      -34443.177      197.47881      197.5838       306.30608    
     12400  -34620.423      184.20004     -34436.223      197.42556      197.5317       306.45036    
     12500  -34613.224      183.02123     -34430.203      197.37502      197.4824       306.59464    
     12600  -34606.151      181.16593     -34424.985      197.32107      197.42984      306.73892    
     12700  -34604.894      184.90828     -34419.985      197.26913      197.37922      306.8832     
     12800  -34597.471      183.5878      -34413.883      197.21445      197.32635      307.02748    
     12900  -34587.462      183.84687     -34403.615      197.16059      197.27451      307.17176    
     13000  -34580.053      186.64311     -34393.41       197.10523      197.22145      307.31604    
     13100  -34573.115      185.33201     -34387.783      197.04968      197.16866      307.46032    
     13200  -34569.82       184.57478     -34385.246      196.99329      197.11474      307.6046     
     13300  -34564.866      184.28692     -34380.579      196.93615      197.06047      307.74888    
     13400  -34554.429      181.62412     -34372.805      196.8793       197.00642      307.89316    
     13500  -34548.497      184.15995     -34364.337      196.82132      196.95117      308.03744    
     13600  -34541.495      186.25865     -34355.236      196.76392      196.89599      308.18172    
     13700  -34533.231      186.54132     -34346.69       196.7055       196.83988      308.326      
     13800  -34526.2        184.73073     -34341.469      196.64796      196.78399      308.47028    
     13900  -34520.958      181.593       -34339.365      196.5886       196.72622      308.61456    
     14000  -34517.555      184.1346      -34333.421      196.53163      196.67065      308.75884    
     14100  -34505.074      181.96097     -34323.113      196.47177      196.61138      308.90312    
     14200  -34501.307      189.37566     -34311.931      196.41535      196.55589      309.0474     
     14300  -34491.418      186.24167     -34305.176      196.35548      196.49641      309.19168    
     14400  -34484.676      184.70761     -34299.968      196.29935      196.44038      309.33596    
     14500  -34476.895      182.10433     -34294.791      196.23932      196.38045      309.48024    
     14600  -34471.582      182.55067     -34289.031      196.18363      196.32509      309.62452    
     14700  -34467.596      183.39874     -34284.197      196.12346      196.2652       309.7688     
     14800  -34458.798      180.14835     -34278.65       196.06869      196.21103      309.91308    
     14900  -34449.313      181.12003     -34268.193      196.00849      196.15142      310.05736    
     15000  -34442.717      186.11101     -34256.606      195.95405      196.09774      310.20164    
     15100  -34438.428      190.12292     -34248.306      195.8953       196.04013      310.34592    
     15200  -34426.317      183.47294     -34242.844      195.84037      195.9865       310.4902     
     15300  -34421.615      181.45121     -34240.164      195.78255      195.9302       310.63448    
     15400  -34413.249      178.57997     -34234.669      195.72817      195.878        310.77876    
     15500  -34406.037      186.33218     -34219.704      195.67035      195.82305      310.92304    
     15600  -34395.387      185.73307     -34209.654      195.61668      195.77242      311.06732    
     15700  -34390.02       187.88233     -34202.138      195.55955      195.7188       311.2116     
     15800  -34378.024      180.9704      -34197.053      195.50552      195.66814      311.35588    
     15900  -34373.602      182.05187     -34191.55       195.44999      195.61606      311.50016    
     16000  -34363.87       181.70539     -34182.165      195.39607      195.56569      311.64444    
     16100  -34355.769      186.93823     -34168.831      195.34245      195.51523      311.78872    
     16200  -34345.137      184.64506     -34160.492      195.28835      195.46404      311.933      
     16300  -34343.196      188.01691     -34155.179      195.23732      195.41524      312.07728    
     16400  -34334.608      184.7297      -34149.879      195.18422      195.36361      312.22156    
     16500  -34325.356      183.3148      -34142.041      195.13474      195.31562      312.36584    
     16600  -34320.831      187.27505     -34133.556      195.08324      195.265        312.51012    
     16700  -34307.287      182.73334     -34124.554      195.03495      195.21719      312.65439    
     16800  -34301.696      187.65178     -34114.045      194.98491      195.16738      312.79867    
     16900  -34288.363      187.35543     -34101.007      194.93825      195.12078      312.94295    
     17000  -34281.318      188.60783     -34092.71       194.88876      195.07123      313.08723    
     17100  -34276.569      186.15561     -34090.414      194.84394      195.02662      313.23151    
     17200  -34269.112      184.95746     -34084.155      194.79491      194.97762      313.37579    
     17300  -34261.815      184.3141      -34077.501      194.7524       194.9351       313.52007    
     17400  -34252.529      182.72276     -34069.807      194.70374      194.88705      313.66435    
     17500  -34244.509      184.41809     -34060.091      194.66323      194.8469       313.80863    
     17600  -34231.576      183.72        -34047.856      194.616        194.80022      313.95291    
     17700  -34222.06       183.92161     -34038.138      194.57666      194.76132      314.09719    
     17800  -34220.397      186.4844      -34033.912      194.5317       194.71688      314.24147    
     17900  -34212.906      183.51667     -34029.39       194.49287      194.67889      314.38575    
     18000  -34204.518      185.03109     -34019.487      194.44962      194.6368       314.53003    
     18100  -34193.231      185.46797     -34007.763      194.41206      194.60057      314.67431    
     18200  -34181.938      185.18415     -33996.754      194.37006      194.56022      314.81859    
     18300  -34173.115      185.0161      -33988.099      194.33379      194.52554      314.96287    
     18400  -34166.651      181.56084     -33985.09       194.29289      194.48677      315.10715    
     18500  -34162.731      182.85709     -33979.874      194.25651      194.45217      315.25143    
     18600  -34151.354      184.03006     -33967.324      194.21852      194.41607      315.39571    
     18700  -34139.159      184.43544     -33954.724      194.18171      194.38099      315.53999    
     18800  -34132.411      188.22008     -33944.191      194.14654      194.34722      315.68427    
     18900  -34121.25       185.43022     -33935.819      194.10941      194.31162      315.82855    
     19000  -34110.685      179.29186     -33931.393      194.07639      194.27964      315.97283    
     19100  -34106.44       180.92634     -33925.514      194.04016      194.24415      316.11711    
     19200  -34095.997      182.98747     -33913.01       194.00887      194.21352      316.26139    
     19300  -34086.678      186.24149     -33900.436      193.97281      194.17824      316.40567    
     19400  -34074.639      183.56017     -33891.079      193.94303      194.14883      316.54995    
     19500  -34068.22       186.36533     -33881.854      193.90745      194.11357      316.69423    
     19600  -34058.056      183.94652     -33874.11       193.87922      194.08572      316.83851    
     19700  -34050.419      182.48324     -33867.935      193.84357      194.0503       316.98279    
     19800  -34042.528      181.40792     -33861.12       193.81693      194.02386      317.12707    
     19900  -34030.279      181.13249     -33849.147      193.782        193.98914      317.27135    
     20000  -34019.429      184.47158     -33834.957      193.75613      193.96399      317.41563    
     20100  -34010.773      185.12418     -33825.649      193.72258      193.93103      317.55991    
     20200  -34003.75       184.0468      -33819.703      193.69668      193.906        317.70419    
     20300  -33996.319      183.21252     -33813.106      193.66503      193.8752       317.84847    
     20400  -33989.946      185.31691     -33804.629      193.63971      193.85055      317.99275    
     20500  -33975.567      185.35227     -33790.215      193.60949      193.82126      318.13703    
     20600  -33963.241      185.83086     -33777.41       193.58483      193.79738      318.28131    
     20700  -33958.111      189.20864     -33768.902      193.55607      193.76961      318.42559    
     20800  -33944.38       181.01944     -33763.361      193.53053      193.74549      318.56987    
     20900  -33939.853      183.85831     -33755.994      193.50404      193.72014      318.71415    
     21000  -33929.543      184.49948     -33745.043      193.47774      193.69537      318.85843    
     21100  -33916.55       187.81197     -33728.738      193.45295      193.67189      319.00271    
     21200  -33904.812      185.15979     -33719.652      193.42657      193.64674      319.14699    
     21300  -33897.583      184.12383     -33713.459      193.4029       193.62426      319.29127    
     21400  -33891.156      184.57257     -33706.583      193.37663      193.59947      319.43555    
     21500  -33877.939      181.31155     -33696.628      193.35336      193.57729      319.57983    
     21600  -33867.022      186.26463     -33680.757      193.32761      193.55236      319.72411    
     21700  -33855.28       186.09606     -33669.184      193.30586      193.53142      319.86839    
     21800  -33845.612      183.83379     -33661.779      193.27893      193.50509      320.01267    
     21900  -33838.988      183.68922     -33655.299      193.25877      193.48516      320.15695    
     22000  -33829.463      182.63107     -33646.832      193.23126      193.45795      320.30123    
     22100  -33819.057      184.72686     -33634.33       193.21188      193.43834      320.44551    
     22200  -33804.449      186.14603     -33618.303      193.18538      193.41147      320.58979    
     22300  -33797.731      187.65847     -33610.072      193.1653       193.39091      320.73407    
     22400  -33788.222      183.84915     -33604.373      193.14009      193.3646       320.87835    
     22500  -33783.923      187.27718     -33596.646      193.1196       193.34342      321.02263    
     22600  -33770.642      184.04921     -33586.593      193.09561      193.31873      321.1669     
     22700  -33759.621      184.78541     -33574.836      193.07502      193.29767      321.31118    
     22800  -33744.487      185.52324     -33558.963      193.05125      193.27376      321.45546    
     22900  -33732.961      184.04394     -33548.917      193.03142      193.25394      321.59974    
     23000  -33727.868      184.96063     -33542.907      193.00755      193.23048      321.74402    
     23100  -33718.399      183.59813     -33534.801      192.98757      193.21135      321.8883     
     23200  -33708.522      183.39255     -33525.13       192.96406      193.18916      322.03258    
     23300  -33696.585      182.76449     -33513.82       192.94268      193.16946      322.17686    
     23400  -33687.528      189.16882     -33498.36       192.92082      193.14949      322.32114    
     23500  -33673.067      186.70026     -33486.367      192.89844      193.12909      322.46542    
     23600  -33665.612      186.24363     -33479.368      192.87754      193.1107       322.6097     
     23700  -33654.344      182.99566     -33471.349      192.8542       193.08947      322.75398    
     23800  -33645.464      183.87341     -33461.591      192.83454      193.07184      322.89826    
     23900  -33634.827      184.48887     -33450.338      192.81072      193.04967      323.04254    
     24000  -33620.804      184.28673     -33436.517      192.79212      193.03263      323.18682    
     24100  -33610.622      188.36234     -33422.26       192.76848      193.00997      323.3311     
     24200  -33603.529      188.78031     -33414.749      192.74997      192.99202      323.47538    
     24300  -33589.605      181.89574     -33407.709      192.72642      192.96859      323.61966    
     24400  -33583.574      185.9684      -33397.605      192.70837      192.95024      323.76394    
     24500  -33573.519      187.54541     -33385.973      192.68465      192.92598      323.90822    
     24600  -33558.677      185.36725     -33373.31       192.66679      192.90741      324.0525     
     24700  -33544.783      186.40829     -33358.374      192.64267      192.88227      324.19678    
     24800  -33535.981      188.71408     -33347.267      192.62534      192.86377      324.34106    
     24900  -33525.6        182.31728     -33343.282      192.60092      192.83813      324.48534    
     25000  -33517.312      182.6593      -33334.653      192.5834       192.81945      324.62962    
     25100  -33508.673      184.43314     -33324.24       192.55957      192.7946       324.7739     
     25200  -33496.334      184.53712     -33311.797      192.54073      192.77498      324.91818    
     25300  -33483.28       186.2453      -33297.035      192.51821      192.75204      325.06246    
     25400  -33472.506      187.78359     -33284.722      192.49809      192.73169      325.20674    
     25500  -33463.994      184.64974     -33279.345      192.47642      192.71015      325.35102    
     25600  -33456.002      184.00657     -33271.995      192.45504      192.68905      325.4953     
     25700  -33440.686      181.26734     -33259.419      192.43388      192.66902      325.63958    
     25800  -33430.306      185.42676     -33244.879      192.41105      192.64744      325.78386    
     25900  -33417.64       185.35216     -33232.288      192.39155      192.62938      325.92814    
     26000  -33409.26       186.78561     -33222.474      192.36681      192.60625      326.07242    
     26100  -33395.052      177.70102     -33217.351      192.34843      192.5896       326.2167     
     26200  -33388.883      179.94545     -33208.937      192.3225       192.56528      326.36098    
     26300  -33378.533      184.30295     -33194.23       192.30522      192.54928      326.50526    
     26400  -33363.47       184.12558     -33179.344      192.27947      192.52417      326.64954    
     26500  -33351.425      185.51962     -33165.906      192.26192      192.50743      326.79382    
     26600  -33339.246      186.27787     -33152.968      192.23669      192.48261      326.9381     
     26700  -33328.36       186.04428     -33142.316      192.21841      192.46437      327.08238    
     26800  -33320.24       184.36717     -33135.873      192.19332      192.43932      327.22666    
     26900  -33308.202      181.2488      -33126.953      192.17401      192.42004      327.37094    
     27000  -33297.14       184.7616      -33112.378      192.14936      192.39507      327.51522    
     27100  -33284.32       186.50254     -33097.817      192.12927      192.37428      327.6595     
     27200  -33271.349      184.92831     -33086.421      192.10583      192.3501       327.80378    
     27300  -33261.053      184.19357     -33076.86       192.0832       192.32656      327.94806    
     27400  -33250.451      182.08823     -33068.362      192.06212      192.30436      328.09234    
     27500  -33240.895      179.59891     -33061.296      192.03744      192.2789       328.23662    
     27600  -33228.581      178.77682     -33049.804      192.01784      192.25847      328.3809     
     27700  -33216.401      183.91955     -33032.481      191.9917       192.23187      328.52518    
     27800  -33203.07       183.80831     -33019.261      191.97234      192.21271      328.66946    
     27900  -33194.254      187.71001     -33006.544      191.94506      192.18596      328.81374    
     28000  -33180.425      184.4765      -32995.948      191.92609      192.16807      328.95802    
     28100  -33172.841      184.64404     -32988.197      191.89756      192.14111      329.1023     
     28200  -33159.71       180.1098      -32979.6        191.87846      192.12371      329.24658    
     28300  -33149.065      184.60219     -32964.463      191.84946      192.09695      329.39086    
     28400  -33132.067      183.30309     -32948.763      191.83008      192.07964      329.53514    
     28500  -33125.021      187.94241     -32937.078      191.80235      192.05426      329.67941    
     28600  -33112.144      184.97436     -32927.17       191.7811       192.03492      329.82369    
     28700  -33101.677      183.42498     -32918.252      191.75543      192.01077      329.96797    
     28800  -33090.477      183.1255      -32907.352      191.73257      191.98896      330.11225    
     28900  -33076.88       185.99228     -32890.888      191.70893      191.96612      330.25653    
     29000  -33062.576      186.64375     -32875.932      191.68428      191.94222      330.40081    
     29100  -33049.18       185.11061     -32864.069      191.66219      191.92056      330.54509    
     29200  -33037.023      182.45037     -32854.573      191.63534      191.89383      330.68937    
     29300  -33025.501      178.21858     -32847.283      191.61435      191.8722       330.83365    
     29400  -33018.845      182.61712     -32836.228      191.5869       191.84404      330.97793    
     29500  -33002.496      184.77015     -32817.726      191.56615      191.82233      331.12221    
     29600  -32991.421      187.06223     -32804.358      191.53822      191.79306      331.26649    
     29700  -32975.077      180.37673     -32794.701      191.51726      191.77065      331.41077    
     29800  -32967.824      182.24717     -32785.576      191.48888      191.74059      331.55505    
     29900  -32956.874      180.82809     -32776.045      191.46825      191.71817      331.69933    
     30000  -32946.196      182.81356     -32763.382      191.43953      191.68778      331.84361    
     30100  -32931.186      185.25918     -32745.927      191.41842      191.66533      331.98789    
     30200  -32919.644      187.5609      -32732.083      191.38973      191.63578      332.13217    
     30300  -32905.72       183.17469     -32722.545      191.36675      191.61249      332.27645    
     30400  -32897.31       182.98853     -32714.321      191.3393       191.58525      332.42073    
     30500  -32886.086      182.65411     -32703.432      191.3136       191.56048      332.56501    
     30600  -32873.835      186.70818     -32687.127      191.28725      191.53546      332.70929    
     30700  -32858.417      187.55524     -32670.862      191.25973      191.50981      332.85357    
     30800  -32845.94       185.63777     -32660.302      191.23447      191.48643      332.99785    
     30900  -32839.365      187.02805     -32652.337      191.20521      191.45946      333.14213    
     31000  -32822.979      180.79057     -32642.189      191.18125      191.43772      333.28641    
     31100  -32808.986      181.44236     -32627.544      191.1504       191.40926      333.43069    
     31200  -32793.996      183.7167      -32610.28       191.12792      191.38909      333.57497    
     31300  -32783.053      185.42699     -32597.626      191.09562      191.35903      333.71925    
     31400  -32771.362      183.91666     -32587.446      191.07295      191.33881      333.86353    
     31500  -32756.259      178.84323     -32577.416      191.041        191.30849      334.00781    
     31600  -32749.357      182.84178     -32566.515      191.01687      191.28544      334.15209    
     31700  -32737.256      186.12132     -32551.135      190.98676      191.25611      334.29637    
     31800  -32720.97       186.43019     -32534.54       190.96065      191.23034      334.44065    
     31900  -32709.732      187.06253     -32522.67       190.93226      191.20151      334.58493    
     32000  -32696.916      182.61797     -32514.298      190.9047       191.1731       334.72921    
     32100  -32687.935      183.11877     -32504.816      190.87763      191.14463      334.87349    
     32200  -32675.444      183.50988     -32491.934      190.84926      191.11468      335.01777    
     32300  -32661.622      183.65944     -32477.962      190.82295      191.08621      335.16205    
     32400  -32646.559      182.84165     -32463.717      190.7942       191.05547      335.30633    
     32500  -32634.588      184.93677     -32449.651      190.7681       191.02744      335.45061    
     32600  -32623.966      190.03741     -32433.929      190.73835      190.99611      335.59489    
     32700  -32607.142      186.54899     -32420.593      190.71276      190.96879      335.73917    
     32800  -32599.713      186.48357     -32413.229      190.6816       190.93621      335.88345    
     32900  -32588.692      184.78992     -32403.902      190.65686      190.91008      336.02773    
     33000  -32575.467      184.39611     -32391.071      190.62486      190.87753      336.17201    
     33100  -32559.26       183.04715     -32376.213      190.59942      190.85181      336.31629    
     33200  -32546.402      187.607       -32358.795      190.56806      190.82066      336.46057    
     33300  -32534.825      189.38333     -32345.442      190.54051      190.79388      336.60485    
     33400  -32521.392      182.58857     -32338.803      190.51066      190.76492      336.74913    
     33500  -32511.087      183.11347     -32327.973      190.48078      190.73644      336.89341    
     33600  -32500.461      186.71676     -32313.744      190.45192      190.70924      337.03769    
     33700  -32482.755      185.30633     -32297.449      190.42035      190.67932      337.18197    
     33800  -32470.189      187.27545     -32282.913      190.39218      190.65328      337.32625    
     33900  -32456.807      186.3613      -32270.446      190.35824      190.62162      337.47053    
     34000  -32445.986      182.679       -32263.307      190.33107      190.59679      337.61481    
     34100  -32433.824      181.32339     -32252.5        190.29527      190.56338      337.75909    
     34200  -32420.357      183.68892     -32236.668      190.26859      190.53867      337.90337    
     34300  -32406.298      185.17738     -32221.12       190.23275      190.50454      338.04765    
     34400  -32393.127      184.70571     -32208.422      190.20434      190.47762      338.19193    
     34500  -32378.716      182.74425     -32195.971      190.17071      190.44532      338.3362     
     34600  -32368.896      183.54195     -32185.354      190.14005      190.41565      338.48048    
     34700  -32357.755      180.69848     -32177.056      190.10818      190.38418      338.62476    
     34800  -32344.624      180.81399     -32163.81       190.07671      190.353        338.76904    
     34900  -32331.007      185.74219     -32145.264      190.04613      190.32211      338.91332    
     35000  -32317.788      186.57044     -32131.218      190.01387      190.289        339.0576     
     35100  -32300.062      181.32107     -32118.741      189.98497      190.25941      339.20188    
     35200  -32290.331      183.25825     -32107.073      189.95122      190.22472      339.34616    
     35300  -32281.82       184.41408     -32097.406      189.92361      190.19603      339.49044    
     35400  -32267.551      181.12687     -32086.424      189.88929      190.16066      339.63472    
     35500  -32251.487      181.87767     -32069.609      189.86167      190.1325       339.779      
     35600  -32237.122      184.76701     -32052.355      189.82771      190.09771      339.92328    
     35700  -32221.958      182.42205     -32039.536      189.79984      190.06919      340.06756    
     35800  -32211.213      183.17008     -32028.043      189.76681      190.03511      340.21184    
     35900  -32201.39       183.35801     -32018.032      189.73785      190.00535      340.35612    
     36000  -32191.336      184.0441      -32007.292      189.70582      189.97272      340.5004     
     36100  -32171.697      181.68332     -31990.013      189.67467      189.94099      340.64468    
     36200  -32157.272      184.35262     -31972.919      189.64417      189.91014      340.78896    
     36300  -32141          182.12288     -31958.877      189.61002      189.87631      340.93324    
     36400  -32134.162      187.36325     -31946.798      189.58078      189.84728      341.07752    
     36500  -32119.432      182.62242     -31936.81       189.54463      189.81165      341.2218     
     36600  -32107.686      180.56926     -31927.117      189.51515      189.78275      341.36608    
     36700  -32095.418      184.03376     -31911.384      189.47853      189.74706      341.51036    
     36800  -32079.582      186.37442     -31893.208      189.44891      189.71822      341.65464    
     36900  -32067.239      187.0784      -31880.161      189.41265      189.68313      341.79892    
     37000  -32049.766      180.70261     -31869.063      189.38073      189.65238      341.9432     
     37100  -32043.055      183.99467     -31859.061      189.3466       189.61948      342.08748    
     37200  -32028.987      179.60602     -31849.381      189.31197      189.58614      342.23176    
     37300  -32017.12       181.43894     -31835.681      189.28038      189.55578      342.37604    
     37400  -32002.878      186.43529     -31816.443      189.24418      189.52061      342.52032    
     37500  -31984.813      183.76296     -31801.05       189.21378      189.49152      342.6646     
     37600  -31973.933      186.59906     -31787.334      189.17682      189.45595      342.80888    
     37700  -31960.344      183.15512     -31777.188      189.14661      189.42698      342.95316    
     37800  -31949.323      180.90698     -31768.416      189.11107      189.39223      343.09744    
     37900  -31937.635      182.73708     -31754.898      189.08049      189.36251      343.24172    
     38000  -31924.176      185.7256      -31738.45       189.04634      189.32856      343.386      
     38100  -31905.621      181.97119     -31723.65       189.01475      189.29725      343.53028    
     38200  -31895.709      187.76705     -31707.941      188.98249      189.26519      343.67456    
     38300  -31878.678      186.28179     -31692.396      188.9499       189.23244      343.81884    
     38400  -31863.139      185.57399     -31677.565      188.91875      189.20063      343.96312    
     38500  -31850.825      187.73865     -31663.086      188.88585      189.16689      344.1074     
     38600  -31836.796      183.83168     -31652.964      188.85477      189.13459      344.25168    
     38700  -31825.602      182.20332     -31643.399      188.82159      189.10036      344.39596    
     38800  -31813.195      182.95551     -31630.239      188.79112      189.06832      344.54024    
     38900  -31796.783      184.54639     -31612.236      188.75695      189.03259      344.68452    
     39000  -31781.541      185.67929     -31595.862      188.72687      189.00125      344.8288     
     39100  -31770.825      186.74937     -31584.076      188.69193      188.96514      344.97308    
     39200  -31759.743      186.23809     -31573.505      188.66113      188.9332       345.11736    
     39300  -31743.567      181.93165     -31561.636      188.62716      188.89811      345.26164    
     39400  -31733.561      185.34076     -31548.221      188.59486      188.86548      345.40592    
     39500  -31715.089      184.96273     -31530.127      188.56212      188.83232      345.5502     
     39600  -31700.809      186.57697     -31514.232      188.5278       188.79822      345.69448    
     39700  -31689.299      185.85797     -31503.441      188.49606      188.76704      345.83876    
     39800  -31680.761      186.38648     -31494.375      188.46061      188.73276      345.98304    
     39900  -31664.545      183.25771     -31481.287      188.42922      188.70278      346.12732    
     40000  -31652.171      185.92108     -31466.25       188.39368      188.66933      346.2716     
     40100  -31634.016      183.19642     -31450.82       188.36172      188.63988      346.41588    
     40200  -31617.763      186.5358      -31431.227      188.32657      188.60755      346.56016    
     40300  -31606.836      189.19584     -31417.641      188.29472      188.5786       346.70444    
     40400  -31592.741      184.83774     -31407.903      188.26014      188.54702      346.84871    
     40500  -31581.38       184.9385      -31396.441      188.22804      188.51784      346.99299    
     40600  -31567.271      183.72074     -31383.55       188.19502      188.48739      347.13727    
     40700  -31551.434      181.46219     -31369.972      188.1616       188.45649      347.28155    
     40800  -31538.234      185.00878     -31353.225      188.1302       188.42671      347.42583    
     40900  -31525.375      189.48352     -31335.892      188.09647      188.39448      347.57011    
     41000  -31509.896      186.6846      -31323.212      188.06582      188.36479      347.71439    
     41100  -31498.422      183.66998     -31314.752      188.0325       188.33155      347.85867    
     41200  -31485.507      183.25467     -31302.253      188.00215      188.30068      348.00295    
     41300  -31470.857      183.81303     -31287.044      187.96936      188.26694      348.14723    
     41400  -31456.18       184.70392     -31271.476      187.93978      188.23578      348.29151    
     41500  -31442.987      188.38814     -31254.599      187.90727      188.20147      348.43579    
     41600  -31426.612      189.87538     -31236.737      187.87746      188.16965      348.58007    
     41700  -31413.027      187.30491     -31225.722      187.84659      188.13667      348.72435    
     41800  -31401.789      184.21854     -31217.571      187.81496      188.10273      348.86863    
     41900  -31389.334      184.28693     -31205.047      187.78571      188.07124      349.01291    
     42000  -31374.324      183.03386     -31191.29       187.75337      188.03669      349.15719    
     42100  -31360.819      185.31775     -31175.501      187.72504      188.00641      349.30147    
     42200  -31346.01       187.5774      -31158.433      187.69249      187.97257      349.44575    
     42300  -31332.929      187.31096     -31145.618      187.66391      187.94304      349.59003    
     42400  -31323.502      185.77859     -31137.723      187.63129      187.90994      349.73431    
     42500  -31306.452      181.58162     -31124.87       187.60231      187.88119      349.87859    
     42600  -31293.649      185.21083     -31108.438      187.57104      187.85041      350.02287    
     42700  -31276.737      185.11145     -31091.625      187.54086      187.82108      350.16715    
     42800  -31265.409      188.58321     -31076.826      187.51038      187.79226      350.31143    
     42900  -31249.343      181.83058     -31067.513      187.47906      187.76266      350.45571    
     43000  -31236.057      178.83292     -31057.224      187.44931      187.7351       350.59999    
     43100  -31225.323      185.7437      -31039.58       187.41784      187.70558      350.74427    
     43200  -31205.518      183.86479     -31021.653      187.38844      187.6782       350.88855    
     43300  -31192.609      186.09845     -31006.51       187.35647      187.64861      351.03283    
     43400  -31179.262      185.47389     -30993.788      187.32717      187.62109      351.17711    
     43500  -31167.543      182.9187      -30984.624      187.29534      187.59066      351.32139    
     43600  -31155.363      182.64627     -30972.717      187.26639      187.56279      351.46567    
     43700  -31140.691      185.38697     -30955.304      187.23531      187.53241      351.60995    
     43800  -31124.587      185.31538     -30939.272      187.20613      187.50378      351.75423    
     43900  -31107.791      182.98457     -30924.806      187.17647      187.47422      351.89851    
     44000  -31093.799      183.50315     -30910.296      187.14645      187.44417      352.04279    
     44100  -31076.49       180.33352     -30896.157      187.11837      187.41571      352.18707    
     44200  -31071.272      187.53441     -30883.738      187.08778      187.38484      352.33135    
     44300  -31054.534      181.95546     -30872.578      187.06027      187.35697      352.47563    
     44400  -31040.988      181.258       -30859.73       187.03027      187.32659      352.61991    
     44500  -31027.617      184.68129     -30842.936      187.0027       187.29854      352.76419    
     44600  -31011.428      187.1471      -30824.281      186.97339      187.26883      352.90847    
     44700  -30996.038      185.35539     -30810.682      186.94651      187.24157      353.05275    
     44800  -30985.742      185.82618     -30799.916      186.9181       187.21266      353.19703    
     44900  -30972.427      184.62852     -30787.799      186.89089      187.18489      353.34131    
     45000  -30957.224      183.68546     -30773.539      186.86435      187.15806      353.48559    
     45100  -30942.847      184.57074     -30758.276      186.83625      187.12959      353.62987    
     45200  -30924.726      182.86396     -30741.862      186.81063      187.10391      353.77415    
     45300  -30911.117      186.44204     -30724.675      186.78245      187.0757       353.91843    
     45400  -30893.026      186.6079      -30706.418      186.75681      187.05012      354.06271    
     45500  -30882.851      187.77265     -30695.079      186.72845      187.02231      354.20699    
     45600  -30868.866      182.78408     -30686.082      186.70226      186.99689      354.35127    
     45700  -30855.952      182.64419     -30673.308      186.67403      186.96913      354.49555    
     45800  -30842.436      183.28221     -30659.154      186.64771      186.9432       354.63983    
     45900  -30828.064      184.84258     -30643.222      186.62029      186.91554      354.78411    
     46000  -30810.719      185.19918     -30625.52       186.59345      186.88864      354.92839    
     46100  -30799.756      188.41631     -30611.34       186.56754      186.86264      355.07267    
     46200  -30788.141      184.97904     -30603.162      186.53942      186.83442      355.21695    
     46300  -30776.028      185.66568     -30590.362      186.51417      186.80917      355.36122    
     46400  -30760.604      185.74772     -30574.856      186.48569      186.78086      355.5055     
     46500  -30741.862      184.36337     -30557.499      186.46052      186.75588      355.64978    
     46600  -30727.319      187.7595      -30539.56       186.433        186.72879      355.79406    
     46700  -30716.476      188.23511     -30528.241      186.40657      186.70322      355.93834    
     46800  -30700.307      180.79283     -30519.514      186.3801       186.67756      356.08262    
     46900  -30686.305      179.94857     -30506.357      186.35383      186.65224      356.2269     
     47000  -30672.847      182.43958     -30490.408      186.32784      186.62739      356.37118    
     47100  -30659.309      186.84216     -30472.467      186.30204      186.60293      356.51546    
     47200  -30643.819      186.8058      -30457.013      186.2765       186.5788       356.65974    
     47300  -30633.65       184.79562     -30448.855      186.2507       186.55448      356.80402    
     47400  -30619.189      182.86775     -30436.321      186.22648      186.53129      356.9483     
     47500  -30603.566      184.48714     -30419.079      186.20063      186.50683      357.09258    
     47600  -30586.982      185.79647     -30401.185      186.17675      186.4838       357.23686    
     47700  -30573.217      186.83734     -30386.38       186.15167      186.45946      357.38114    
     47800  -30557.343      183.49291     -30373.85       186.12755      186.43603      357.52542    
     47900  -30546.579      184.84935     -30361.73       186.10312      186.41176      357.6697     
     48000  -30531.127      177.60292     -30353.524      186.0791       186.38711      357.81398    
     48100  -30519.491      179.92026     -30339.571      186.0557       186.36292      357.95826    
     48200  -30505.201      185.54781     -30319.653      186.03121      186.33702      358.10254    
     48300  -30486.009      183.91307     -30302.096      186.00906      186.31344      358.24682    
     48400  -30469.588      183.12212     -30286.466      185.98463      186.2871       358.3911     
     48500  -30462.973      189.32027     -30273.652      185.96187      186.26197      358.53538    
     48600  -30448.2        183.85335     -30264.346      185.93977      186.23758      358.67966    
     48700  -30427.985      178.06355     -30249.922      185.9156       186.21114      358.82394    
     48800  -30415.652      183.49724     -30232.155      185.89411      186.18742      358.96822    
     48900  -30401.577      184.91968     -30216.658      185.87015      186.1617       359.1125     
     49000  -30387.322      185.02882     -30202.293      185.84761      186.1379       359.25678    
     49100  -30376.832      186.5845      -30190.247      185.82438      186.11393      359.40106    
     49200  -30363.379      183.98124     -30179.397      185.80054      186.09033      359.54534    
     49300  -30349.905      181.2831      -30168.622      185.77811      186.06832      359.68962    
     49400  -30337.3        181.71418     -30155.586      185.75347      186.04489      359.8339     
     49500  -30318.489      183.7159      -30134.774      185.73186      186.02529      359.97818    
     49600  -30299.206      182.28936     -30116.917      185.70648      186.00211      360.12246    
     49700  -30287.428      186.26125     -30101.167      185.68438      185.9825       360.26674    
     49800  -30271.427      183.80684     -30087.62       185.6604       185.96138      360.41102    
     49900  -30261.511      184.70441     -30076.807      185.63667      185.94056      360.5553     
     50000  -30245.65       181.33382     -30064.317      185.61445      185.92107      360.69958    
     50100  -30232.968      187.67667     -30045.291      185.58969      185.89916      360.84386    
     50200  -30213.569      187.23451     -30026.334      185.56817      185.87988      360.98814    
     50300  -30198.531      185.22694     -30013.304      185.54342      185.85716      361.13242    
     50400  -30183.455      181.54772     -30001.907      185.52184      185.83693      361.2767     
     50500  -30171.404      182.46837     -29988.936      185.49815      185.81444      361.42098    
     50600  -30158.021      184.31021     -29973.711      185.47634      185.79294      361.56526    
     50700  -30141.312      187.25639     -29954.056      185.45461      185.77115      361.70954    
     50800  -30126.821      189.62888     -29937.192      185.43142      185.74735      361.85382    
     50900  -30114.428      187.31853     -29927.109      185.4114       185.72693      361.9981     
     51000  -30100.914      185.73123     -29915.183      185.3874       185.7016       362.14238    
     51100  -30085.331      183.81028     -29901.521      185.36869      185.68167      362.28666    
     51200  -30073.079      185.06815     -29888.011      185.34544      185.65622      362.43094    
     51300  -30056.553      181.34098     -29875.212      185.32674      185.63534      362.57522    
     51400  -30045.977      183.1044      -29862.872      185.30513      185.61133      362.7195     
     51500  -30028.568      182.17471     -29846.394      185.28482      185.58915      362.86378    
     51600  -30012.687      186.40429     -29826.283      185.26533      185.56761      363.00806    
     51700  -29996.993      185.97327     -29811.02       185.24383      185.54461      363.15234    
     51800  -29984.416      185.19859     -29799.217      185.22564      185.52495      363.29662    
     51900  -29969.06       182.73994     -29786.32       185.20345      185.50182      363.4409     
     52000  -29956.612      185.58618     -29771.026      185.18523      185.48271      363.58518    
     52100  -29942.117      186.6692      -29755.448      185.16342      185.46071      363.72946    
     52200  -29923.15       184.25308     -29738.897      185.14376      185.441        363.87374    
     52300  -29909.98       189.15323     -29720.827      185.12328      185.42065      364.01801    
     52400  -29896.042      189.40866     -29706.633      185.10222      185.39992      364.16229    
     52500  -29881.306      184.52168     -29696.784      185.08246      185.38025      364.30657    
     52600  -29866.572      183.05126     -29683.521      185.06088      185.35915      364.45085    
     52700  -29849.494      181.18444     -29668.31       185.04085      185.33934      364.59513    
     52800  -29837.352      186.63175     -29650.72       185.01917      185.31803      364.73941    
     52900  -29819.249      187.91574     -29631.334      184.99923      185.29835      364.88369    
     53000  -29806.329      188.59401     -29617.735      184.97691      185.27653      365.02797    
     53100  -29793.706      185.68862     -29608.017      184.95757      185.25754      365.17225    
     53200  -29780.9        186.24572     -29594.655      184.93553      185.23603      365.31653    
     53300  -29761.683      180.58798     -29581.095      184.91422      185.21534      365.46081    
     53400  -29749.112      181.88697     -29567.225      184.89357      185.19551      365.60509    
     53500  -29738.647      185.00726     -29553.64       184.87182      185.17425      365.74937    
     53600  -29722.893      183.36815     -29539.524      184.85178      185.15555      365.89365    
     53700  -29710.534      187.35188     -29523.183      184.82878      185.13364      366.03793    
     53800  -29691.591      186.00227     -29505.589      184.81034      185.11672      366.18221    
     53900  -29676.917      187.79358     -29489.123      184.78673      185.09427      366.32649    
     54000  -29662.746      185.02528     -29477.721      184.76883      185.07753      366.47077    
     54100  -29649.767      183.58627     -29466.181      184.74708      185.05689      366.61505    
     54200  -29633.269      182.82312     -29450.446      184.72765      185.03828      366.75933    
     54300  -29616.196      183.39384     -29432.802      184.7087       185.01967      366.90361    
     54400  -29602.161      189.11048     -29413.05       184.68788      184.99852      367.04789    
     54500  -29585.94       190.70405     -29395.236      184.66994      184.98069      367.19217    
     54600  -29572.99       186.90169     -29386.088      184.64859      184.95859      367.33645    
     54700  -29562.093      188.7755      -29373.317      184.63189      184.94131      367.48073    
     54800  -29545.556      185.08968     -29360.466      184.61018      184.9186       367.62501    
     54900  -29531.434      184.54889     -29346.885      184.59344      184.90058      367.76929    
     55000  -29513.593      181.38688     -29332.206      184.57272      184.87815      367.91357    
     55100  -29499.025      182.2631      -29316.762      184.55423      184.85776      368.05785    
     55200  -29486.156      186.98415     -29299.172      184.53535      184.8369       368.20213    
     55300  -29467.342      186.28278     -29281.059      184.51561      184.8153       368.34641    
     55400  -29451.633      183.99061     -29267.642      184.49759      184.7952       368.49069    
     55500  -29440.842      183.8213      -29257.02       184.47722      184.77274      368.63497    
     55600  -29428.832      186.50914     -29242.323      184.45928      184.75317      368.77925    
     55700  -29410.952      184.07241     -29226.88       184.43825      184.73105      368.92353    
     55800  -29396.718      184.41303     -29212.305      184.41906      184.71112      369.06781    
     55900  -29384.142      183.35454     -29200.787      184.39971      184.69206      369.21209    
     56000  -29367.11       180.4374      -29186.672      184.37836      184.6712       369.35637    
     56100  -29352.001      183.8717      -29168.129      184.35928      184.65287      369.50065    
     56200  -29332.586      185.26285     -29147.323      184.33785      184.63267      369.64493    
     56300  -29320.063      187.85986     -29132.203      184.31881      184.61528      369.78921    
     56400  -29304.138      184.77101     -29119.367      184.29777      184.59643      369.93349    
     56500  -29292.221      186.00219     -29106.218      184.27846      184.57923      370.07777    
     56600  -29280.193      186.30909     -29093.884      184.25751      184.56028      370.22205    
     56700  -29263.188      183.59133     -29079.597      184.23734      184.54236      370.36633    
     56800  -29245.15       182.18811     -29062.962      184.21796      184.5249       370.51061    
     56900  -29229.041      186.84201     -29042.199      184.19684      184.50563      370.65489    
     57000  -29215.884      190.98587     -29024.898      184.17706      184.48737      370.79917    
     57100  -29200.857      186.09208     -29014.765      184.15659      184.46818      370.94345    
     57200  -29184.784      183.74685     -29001.038      184.13711      184.44927      371.08773    
     57300  -29169.206      182.17482     -28987.031      184.11745      184.42957      371.23201    
     57400  -29157.532      183.95642     -28973.576      184.09756      184.40969      371.37629    
     57500  -29142.642      183.22735     -28959.415      184.07878      184.39025      371.52057    
     57600  -29126.535      181.44768     -28945.087      184.058        184.3684       371.66485    
     57700  -29115.089      184.54484     -28930.544      184.03945      184.34884      371.80913    
     57800  -29099.326      184.64875     -28914.677      184.01943      184.32745      371.95341    
     57900  -29082.967      185.54135     -28897.425      184.00116      184.3075       372.09769    
     58000  -29064.606      186.29563     -28878.31       183.9804       184.28518      372.24197    
     58100  -29051.886      189.48884     -28862.397      183.96319      184.2665       372.38625    
     58200  -29037.115      184.62487     -28852.49       183.94186      184.24388      372.53052    
     58300  -29022.672      185.17622     -28837.496      183.9243       184.22534      372.6748     
     58400  -29006.637      183.68766     -28822.95       183.90414      184.20463      372.81908    
     58500  -28992.346      182.86753     -28809.478      183.88562      184.18542      372.96336    
     58600  -28979.864      184.32696     -28795.538      183.86602      184.16563      373.10764    
     58700  -28963.152      180.94802     -28782.204      183.84669      184.14629      373.25192    
     58800  -28947.68       182.93115     -28764.749      183.82755      184.12735      373.3962     
     58900  -28929.073      186.58564     -28742.487      183.80735      184.10725      373.54048    
     59000  -28912.026      186.39247     -28725.633      183.78847      184.08877      373.68476    
     59100  -28894.898      182.42206     -28712.476      183.76839      184.06888      373.82904    
     59200  -28885.63       186.73907     -28698.891      183.74912      184.05007      373.97332    
     59300  -28869.023      185.85994     -28683.163      183.72879      184.0301       374.1176     
     59400  -28851.286      183.78497     -28667.501      183.70929      184.01095      374.26188    
     59500  -28838.524      185.33352     -28653.191      183.68898      183.99083      374.40616    
     59600  -28825.382      183.06318     -28642.319      183.66911      183.9709       374.55044    
     59700  -28808.61       182.35766     -28626.252      183.64983      183.95183      374.69472    
     59800  -28791.55       184.4587      -28607.091      183.62779      183.9297       374.839      
     59900  -28774.107      185.58581     -28588.521      183.60972      183.91118      374.98328    
     60000  -28759.167      186.3011      -28572.866      183.58765      183.88886      375.12756    
     60100  -28747.074      189.42848     -28557.646      183.56901      183.86984      375.27184    
     60200  -28729.889      186.56089     -28543.328      183.54675      183.84742      375.41612    
     60300  -28712.972      184.51511     -28528.457      183.52854      183.82889      375.5604     
     60400  -28699.313      185.67394     -28513.639      183.50677      183.8071       375.70468    
     60500  -28683.14       184.97666     -28498.163      183.48814      183.78839      375.84896    
     60600  -28667.469      185.64226     -28481.827      183.46748      183.76802      375.99324    
     60700  -28651.138      185.56299     -28465.575      183.44695      183.74778      376.13752    
     60800  -28631.681      181.41203     -28450.269      183.42763      183.72884      376.2818     
     60900  -28615.945      181.29536     -28434.65       183.40711      183.70891      376.42608    
     61000  -28603.76       185.7719      -28417.988      183.38754      183.68983      376.57036    
     61100  -28584.676      183.51301     -28401.163      183.36679      183.66974      376.71464    
     61200  -28569.351      183.20904     -28386.142      183.34767      183.65095      376.85892    
     61300  -28557.686      185.83823     -28371.848      183.3263       183.62975      377.0032     
     61400  -28538.789      183.0719      -28355.717      183.30729      183.61081      377.14748    
     61500  -28522.805      184.61631     -28338.189      183.28618      183.58977      377.29176    
     61600  -28506.402      185.67694     -28320.725      183.26636      183.56961      377.43604    
     61700  -28491.467      186.58884     -28304.878      183.24671      183.54957      377.58032    
     61800  -28474.224      183.43936     -28290.785      183.22597      183.528        377.7246     
     61900  -28459.106      184.24977     -28274.856      183.20652      183.50769      377.86888    
     62000  -28441.42       183.6775      -28257.743      183.18501      183.48537      378.01316    
     62100  -28426.32       185.89402     -28240.426      183.16561      183.46499      378.15744    
     62200  -28411.646      186.62253     -28225.023      183.14457      183.44267      378.30172    
     62300  -28396.134      186.12068     -28210.013      183.12451      183.42173      378.446      
     62400  -28377.176      184.14907     -28193.027      183.1038       183.40014      378.59028    
     62500  -28363.595      187.01971     -28176.575      183.08357      183.37943      378.73456    
     62600  -28342.848      181.34862     -28161.499      183.06252      183.35775      378.87884    
     62700  -28328.546      182.72884     -28145.817      183.04272      183.33745      379.02312    
     62800  -28313.349      184.90624     -28128.443      183.02205      183.31623      379.1674     
     62900  -28296.289      185.71018     -28110.579      183.00206      183.29559      379.31168    
     63000  -28278.211      185.61448     -28092.596      182.98137      183.27441      379.45596    
     63100  -28261.168      186.41017     -28074.758      182.96118      183.25433      379.60024    
     63200  -28244.058      185.11653     -28058.942      182.94043      183.23373      379.74452    
     63300  -28230.4        187.25506     -28043.145      182.91913      183.21293      379.8888     
     63400  -28212.416      186.16076     -28026.255      182.89933      183.19343      380.03308    
     63500  -28196.732      187.23095     -28009.501      182.87739      183.17227      380.17736    
     63600  -28177.108      185.4119      -27991.696      182.85671      183.15218      380.32164    
     63700  -28158.709      184.20392     -27974.506      182.83496      183.13116      380.46592    
     63800  -28143.669      185.61984     -27958.049      182.81423      183.11144      380.6102     
     63900  -28128.374      186.05247     -27942.322      182.79142      183.08956      380.75448    
     64000  -28108.541      185.19091     -27923.35       182.77107      183.0702       380.89876    
     64100  -28093.072      187.32383     -27905.748      182.74733      183.0476       381.04303    
     64200  -28073.13       184.42608     -27888.703      182.727        183.02835      381.18731    
     64300  -28058.501      185.48893     -27873.012      182.70374      183.00592      381.33159    
     64400  -28038.714      183.83704     -27854.877      182.68249      182.98546      381.47587    
     64500  -28022.775      185.67639     -27837.099      182.66042      182.96441      381.62015    
     64600  -28006.629      185.76934     -27820.86       182.63771      182.94252      381.76443    
     64700  -27991.699      188.51737     -27803.182      182.61702      182.92278      381.90871    
     64800  -27972.585      187.15916     -27785.426      182.59443      182.90099      382.05299    
     64900  -27952.897      185.78728     -27767.109      182.57354      182.88086      382.19727    
     65000  -27934.907      186.09125     -27748.815      182.55138      182.85901      382.34155    
     65100  -27916.001      184.9835      -27731.017      182.53084      182.83853      382.48583    
     65200  -27897.534      185.04695     -27712.487      182.50897      182.81663      382.63011    
     65300  -27880.219      186.48907     -27693.73       182.48868      182.79572      382.77439    
     65400  -27860.16       184.19278     -27675.967      182.46714      182.77339      382.91867    
     65500  -27844.389      186.38449     -27658.004      182.44709      182.75252      383.06295    
     65600  -27823.368      183.22581     -27640.142      182.42573      182.72996      383.20723    
     65700  -27806.125      184.6744      -27621.45       182.40557      182.70844      383.35151    
     65800  -27788.161      185.74045     -27602.421      182.38384      182.68502      383.49579    
     65900  -27769.918      185.52284     -27584.395      182.36417      182.66345      383.64007    
     66000  -27752.011      186.68232     -27565.329      182.34231      182.63957      383.78435    
     66100  -27730.937      184.71309     -27546.224      182.32253      182.61779      383.92863    
     66200  -27715.346      187.22357     -27528.122      182.30041      182.59398      384.07291    
     66300  -27697.627      188.08513     -27509.542      182.28027      182.57216      384.21719    
     66400  -27675.526      184.31274     -27491.213      182.25805      182.54861      384.36147    
     66500  -27661.948      189.88072     -27472.067      182.23714      182.52668      384.50575    
     66600  -27640.287      186.58881     -27453.698      182.21487      182.50379      384.65003    
     66700  -27622.959      188.20182     -27434.757      182.19385      182.48248      384.79431    
     66800  -27602.097      185.94213     -27416.155      182.17161      182.46057      384.93859    
     66900  -27580.951      184.21774     -27396.733      182.14943      182.43917      385.08287    
     67000  -27563.992      187.06202     -27376.93       182.12758      182.41847      385.22715    
     67100  -27544.342      186.78573     -27357.556      182.10465      182.39708      385.37143    
     67200  -27524.014      186.70096     -27337.313      182.08262      182.37674      385.51571    
     67300  -27505.785      187.81946     -27317.965      182.05946      182.35531      385.65999    
     67400  -27484.591      186.38409     -27298.207      182.03784      182.33546      385.80427    
     67500  -27464.18       185.46667     -27278.713      182.0143       182.31367      385.94855    
     67600  -27443.311      184.62458     -27258.686      181.99302      182.29421      386.09283    
     67700  -27424.062      184.90753     -27239.154      181.96932      182.27206      386.23711    
     67800  -27403.799      185.19752     -27218.602      181.94798      182.25216      386.38139    
     67900  -27382.39       185.07148     -27197.319      181.92411      182.22944      386.52567    
     68000  -27359.515      182.62921     -27176.885      181.90325      182.20935      386.66995    
     68100  -27343.534      185.93826     -27157.595      181.8799       182.18635      386.81423    
     68200  -27323.208      186.12742     -27137.08       181.85869      182.16505      386.95851    
     68300  -27302.85       186.71442     -27116.135      181.83622      182.14196      387.10279    
     68400  -27284.862      188.49626     -27096.366      181.8152       182.12013      387.24707    
[...]
     81600  -33842.14       180.98184     -33661.159      180.1745       180.62951      406.29201    
     81700  -33838.437      188.67523     -33649.762      180.20944      180.66053      406.43629    
     81800  -33835.817      190.5451      -33645.272      180.25148      180.69183      406.58057    
     81900  -33830.286      181.16696     -33649.119      180.28693      180.71618      406.72484    
     82000  -33824.531      177.35633     -33647.175      180.32893      180.74497      406.86912    
     82100  -33816.894      181.91667     -33634.977      180.37084      180.77407      407.0134     
     82200  -33811.388      189.39639     -33621.991      180.41714      180.8091       407.15768    
     82300  -33806.846      189.89137     -33616.955      180.45687      180.83918      407.30196    
     82400  -33808.291      185.75541     -33622.535      180.49896      180.87368      407.44624    
     82500  -33805.882      177.11435     -33628.767      180.53995      180.90446      407.59052    
     82600  -33804.565      180.95021     -33623.615      180.58866      180.93467      407.7348     
     82700  -33798.39       194.67345     -33603.717      180.63637      180.96378      407.87908    
     82800  -33797.997      194.02089     -33603.976      180.68793      180.99901      408.02336    
     82900  -33803.619      182.39971     -33621.219      180.73936      181.02947      408.16764    
     83000  -33813.392      178.25991     -33635.132      180.79499      181.06416      408.31192    
     83100  -33812.172      178.05789     -33634.114      180.84598      181.09685      408.4562     
     83200  -33807.848      185.25848     -33622.589      180.89562      181.13671      408.60048    
     83300  -33804.01       190.59222     -33613.417      180.94526      181.17561      408.74476    
     83400  -33809.207      192.69229     -33616.515      180.99404      181.20998      408.88904    
     83500  -33816.95       183.58089     -33633.369      181.04819      181.2376       409.03332    
     83600  -33821.096      175.79502     -33645.301      181.10535      181.27262      409.1776     
     83700  -33821.184      182.0643      -33639.119      181.15737      181.30352      409.32188    
     83800  -33814.789      191.02046     -33623.768      181.21328      181.33178      409.46616    
     83900  -33807.203      189.03533     -33618.168      181.2617       181.35575      409.61044    
     84000  -33807.308      182.56233     -33624.746      181.31024      181.37831      409.75472    
     84100  -33810.472      179.39967     -33631.072      181.35849      181.40176      409.899      
     84200  -33810.675      181.19067     -33629.484      181.40133      181.43029      410.04328    
     84300  -33807.258      185.8964      -33621.362      181.43941      181.45163      410.18756    
     84400  -33802.488      187.40666     -33615.082      181.46835      181.47296      410.33184    
     84500  -33801.755      186.86592     -33614.889      181.48731      181.49142      410.47612    
     84600  -33804.322      183.89871     -33620.424      181.50376      181.51093      410.6204     
     84700  -33812.329      183.14887     -33629.18       181.5229       181.52554      410.76468    
     84800  -33816.407      180.31348     -33636.094      181.54504      181.5371       410.90896    
     84900  -33813.588      179.29577     -33634.292      181.56443      181.55465      411.05324    
     85000  -33814.495      191.32499     -33623.17       181.58712      181.57457      411.19752    
     85100  -33814.198      193.90019     -33620.298      181.61307      181.59358      411.3418     
     85200  -33816.11       183.95082     -33632.159      181.64112      181.60872      411.48608    
     85300  -33822.234      177.34838     -33644.885      181.66242      181.62696      411.63036    
     85400  -33821.291      176.04813     -33645.243      181.67041      181.64507      411.77464    
     85500  -33818.179      184.63427     -33633.545      181.68703      181.67246      411.91892    
     85600  -33813.529      190.75072     -33622.779      181.6988       181.69522      412.0632     
     85700  -33811.205      189.42913     -33621.776      181.71576      181.71957      412.20748    
     85800  -33813.903      184.00607     -33629.897      181.73014      181.73888      412.35176    
     85900  -33816.001      178.91366     -33637.088      181.7384       181.75728      412.49604    
     86000  -33816.373      182.11017     -33634.263      181.74685      181.7704       412.64032    
     86100  -33812.258      188.05693     -33624.202      181.76893      181.78602      412.7846     
     86200  -33804.975      187.93096     -33617.044      181.78676      181.79241      412.92888    
     86300  -33807.61       187.1091      -33620.501      181.80685      181.80423      413.07316    
     86400  -33814.055      181.9677      -33632.088      181.8279       181.80764      413.21744    
     86500  -33816.732      177.70313     -33639.029      181.85133      181.81134      413.36172    
     86600  -33816.473      180.6726      -33635.801      181.86085      181.80963      413.506      
     86700  -33811.563      185.98698     -33625.576      181.87815      181.81534      413.65028    
     86800  -33812.175      192.63619     -33619.539      181.89701      181.81376      413.79456    
     86900  -33813.94       187.49322     -33626.447      181.9232       181.82441      413.93884    
     87000  -33816.276      178.15202     -33638.124      181.93907      181.82575      414.08312    
     87100  -33819.618      178.8083      -33640.81       181.96129      181.82006      414.2274     
     87200  -33817.915      185.5285      -33632.386      181.9775       181.80974      414.37168    
     87300  -33811.195      189.66159     -33621.533      181.99391      181.80347      414.51596    
     87400  -33806.185      188.62015     -33617.565      182.00429      181.79167      414.66024    
     87500  -33810.652      188.11069     -33622.541      182.01284      181.78491      414.80452    
     87600  -33814.519      183.11715     -33631.402      182.01267      181.78157      414.9488     
     87700  -33817.703      180.87911     -33636.824      182.00832      181.77656      415.09308    
     87800  -33814.882      181.43238     -33633.45       182.00235      181.76877      415.23736    
     87900  -33809.366      185.76511     -33623.601      182.00301      181.76871      415.38163    
     88000  -33805.218      188.14004     -33617.078      182.00274      181.76993      415.52591    
     88100  -33803.645      184.80376     -33618.842      182.00875      181.77615      415.67019    
     88200  -33810.162      184.43185     -33625.73       182.00555      181.77298      415.81447    
     88300  -33811.619      179.52899     -33632.09       182.0021       181.78176      415.95875    
     88400  -33812.743      181.0529      -33631.69       181.99957      181.78266      416.10303    
     88500  -33809.861      185.93576     -33623.925      182.00558      181.78955      416.24731    
     88600  -33802.9        187.98572     -33614.914      182.01484      181.79371      416.39159    
     88700  -33803.648      189.47797     -33614.17       182.03013      181.80257      416.53587    
     88800  -33806.377      184.25754     -33622.119      182.03009      181.80046      416.68015    
     88900  -33810.231      179.83902     -33630.392      182.02924      181.80261      416.82443    
     89000  -33811.919      180.01556     -33631.903      182.02646      181.80145      416.96871    
     89100  -33811.547      183.97617     -33627.571      182.03148      181.80496      417.11299    
     89200  -33804.177      182.85079     -33621.326      182.0313       181.80682      417.25727    
     89300  -33803.85       185.75992     -33618.091      182.03374      181.80851      417.40155    
     89400  -33812.554      189.7407      -33622.813      182.02778      181.80922      417.54583    
     89500  -33814.13       181.27898     -33632.851      182.01863      181.80967      417.69011    
     89600  -33816.998      179.62803     -33637.37       182.01268      181.8106       417.83439    
     89700  -33815.925      183.1212      -33632.804      182.00204      181.81235      417.97867    
     89800  -33810.544      186.69247     -33623.852      181.97954      181.81099      418.12295    
     89900  -33808.535      189.80515     -33618.73       181.94857      181.80551      418.26723    
     90000  -33807.657      183.83561     -33623.821      181.90834      181.79816      418.41151    
     90100  -33812.448      181.28914     -33631.158      181.87141      181.793        418.55579    
     90200  -33814.663      181.81207     -33632.851      181.84036      181.78616      418.70007    
     90300  -33809.256      183.09323     -33626.162      181.81763      181.77238      418.84435    
     90400  -33805.038      187.88313     -33617.155      181.79334      181.75553      418.98863    
     90500  -33804.442      189.75645     -33614.685      181.76484      181.74129      419.13291    
     90600  -33806.314      184.90482     -33621.409      181.73662      181.72886      419.27719    
     90700  -33811.216      181.37368     -33629.842      181.70542      181.71707      419.42147    
     90800  -33810.711      178.09638     -33632.614      181.67756      181.70994      419.56575    
     90900  -33808.44       181.80467     -33626.635      181.65733      181.69755      419.71003    
     91000  -33806.534      188.66702     -33617.867      181.6376       181.68591      419.85431    
     91100  -33805.034      189.91702     -33615.117      181.61382      181.67906      419.99859    
     91200  -33807.85       186.0973      -33621.753      181.58774      181.67567      420.14287    
     91300  -33809.749      178.18934     -33631.56       181.5596       181.67171      420.28715    
     91400  -33813.259      177.41727     -33635.842      181.53328      181.67002      420.43143    
     91500  -33814.103      182.38989     -33631.713      181.51318      181.66495      420.57571    
     91600  -33813.023      190.00143     -33623.021      181.48424      181.65825      420.71999    
     91700  -33808.667      190.69392     -33617.973      181.4474       181.64948      420.86427    
     91800  -33805.295      185.70506     -33619.59       181.40749      181.6428       421.00855    
     91900  -33812.398      186.18906     -33626.209      181.36488      181.6354       421.15283    
     92000  -33813.8        180.79091     -33633.009      181.32327      181.62473      421.29711    
     92100  -33815.034      180.914       -33634.12       181.28748      181.61452      421.44139    
     92200  -33813.85       184.26828     -33629.581      181.24408      181.60619      421.58567    
     92300  -33809.243      185.06436     -33624.178      181.19522      181.59805      421.72995    
     92400  -33810.934      187.50393     -33623.43       181.15017      181.58976      421.87423    
     92500  -33814.609      185.19494     -33629.415      181.0998       181.58576      422.01851    
     92600  -33816.436      180.82118     -33635.615      181.04585      181.57789      422.16279    
     92700  -33817.958      181.21451     -33636.743      180.99487      181.56784      422.30707    
     92800  -33814.775      183.03903     -33631.736      180.94475      181.55973      422.45135    
     92900  -33815.269      190.12568     -33625.144      180.88764      181.54802      422.59563    
     93000  -33810.585      186.84812     -33623.737      180.82713      181.53706      422.73991    
     93100  -33813.911      184.44452     -33629.466      180.76618      181.52205      422.88419    
     93200  -33814.98       179.37981     -33635.6        180.71188      181.50823      423.02847    
     93300  -33815.811      178.56407     -33637.247      180.66182      181.49608      423.17275    
     93400  -33822.561      187.53608     -33635.025      180.61581      181.4847       423.31703    
     93500  -33818.711      186.54766     -33632.163      180.56746      181.47242      423.46131    
     93600  -33815.087      184.42024     -33630.667      180.52023      181.45433      423.60559    
     93700  -33818.02       185.25618     -33632.764      180.46597      181.4349       423.74987    
     93800  -33819.592      182.66765     -33636.925      180.40975      181.41906      423.89414    
     93900  -33823.708      184.01734     -33639.691      180.35164      181.39437      424.03842    
     94000  -33822.143      182.18117     -33639.962      180.29596      181.3749       424.1827     
     94100  -33821.656      185.07637     -33636.58       180.2365       181.35558      424.32698    
     94200  -33822.503      188.99797     -33633.505      180.1798       181.34163      424.47126    
     94300  -33820.924      186.24044     -33634.684      180.11781      181.32866      424.61554    
     94400  -33825.058      184.15904     -33640.899      180.05837      181.31578      424.75982    
     94500  -33828.559      183.00973     -33645.549      180.00109      181.29646      424.9041     
     94600  -33830.597      185.28641     -33645.311      179.94591      181.27898      425.04838    
     94700  -33826.811      185.56561     -33641.245      179.88951      181.26162      425.19266    
     94800  -33824.059      185.6979      -33638.361      179.83043      181.23866      425.33694    
     94900  -33824.571      185.80362     -33638.768      179.76645      181.21657      425.48122    
     95000  -33826.062      184.44889     -33641.613      179.70544      181.20014      425.6255     
     95100  -33830.974      186.24333     -33644.731      179.64327      181.18305      425.76978    
     95200  -33827.348      181.51179     -33645.837      179.58169      181.17083      425.91406    
     95300  -33830.072      185.90466     -33644.168      179.52014      181.15807      426.05834    
     95400  -33826.475      185.58404     -33640.891      179.46395      181.14407      426.20262    
     95500  -33828.305      188.16841     -33640.136      179.40598      181.12692      426.3469     
     95600  -33829.566      186.64757     -33642.918      179.35387      181.116        426.49118    
     95700  -33831.819      183.78733     -33648.032      179.29968      181.1032       426.63546    
     95800  -33832.746      181.8136      -33650.932      179.25032      181.0855       426.77974    
     95900  -33831.603      183.00355     -33648.599      179.20069      181.06658      426.92402    
     96000  -33828.977      185.51086     -33643.466      179.15445      181.05059      427.0683     
     96100  -33827.988      186.8474      -33641.141      179.10807      181.03564      427.21258    
     96200  -33828.166      184.57278     -33643.593      179.06319      181.01653      427.35686    
     96300  -33831.585      182.78187     -33648.803      179.01541      180.99841      427.50114    
     96400  -33832.453      180.34014     -33652.113      178.9681       180.98259      427.64542    
     96500  -33834.775      184.54395     -33650.231      178.92556      180.96955      427.7897     
     96600  -33830.01       186.04007     -33643.97       178.88507      180.9538       427.93398    
     96700  -33828.221      188.79449     -33639.426      178.8433       180.93667      428.07826    
     96800  -33826.854      185.01434     -33641.84       178.79898      180.91695      428.22254    
     96900  -33833.178      184.1925      -33648.985      178.75734      180.89786      428.36682    
     97000  -33832.282      179.80984     -33652.472      178.71777      180.8805       428.5111     
     97100  -33829.094      180.61896     -33648.475      178.6814       180.86725      428.65538    
     97200  -33829.17       188.40357     -33640.767      178.6437       180.84902      428.79966    
     97300  -33825.972      188.67318     -33637.299      178.60867      180.83143      428.94394    
     97400  -33828.202      185.95426     -33642.247      178.57761      180.81067      429.08822    
     97500  -33834.8        182.85577     -33651.944      178.54887      180.78713      429.2325     
     97600  -33836.144      179.17198     -33656.972      178.52247      180.76103      429.37678    
     97700  -33834.538      181.45656     -33653.081      178.49941      180.7353       429.52106    
     97800  -33830.36       186.14733     -33644.213      178.4818       180.70858      429.66534    
     97900  -33830.61       190.5784      -33640.032      178.46506      180.68234      429.80962    
     98000  -33829.606      185.41138     -33644.194      178.45009      180.65699      429.9539     
     98100  -33835.718      183.42127     -33652.297      178.43705      180.62871      430.09818    
     98200  -33836.228      179.31259     -33656.915      178.42898      180.59821      430.24246    
     98300  -33836.433      181.66126     -33654.772      178.42129      180.57257      430.38674    
     98400  -33833.941      186.44096     -33647.5        178.41512      180.55206      430.53102    
     98500  -33831.857      189.53508     -33642.322      178.40978      180.53064      430.6753     
     98600  -33835.425      190.45631     -33644.969      178.4046       180.50719      430.81958    
     98700  -33838.351      184.88861     -33653.462      178.40121      180.48685      430.96386    
     98800  -33839.412      179.4692      -33659.942      178.39729      180.46485      431.10814    
     98900  -33837.387      179.76152     -33657.625      178.39643      180.44126      431.25242    
     99000  -33835.058      186.37446     -33648.683      178.39812      180.42168      431.3967     
     99100  -33832.576      190.41198     -33642.164      178.40235      180.40486      431.54098    
     99200  -33833.666      188.9696      -33644.696      178.40815      180.38672      431.68526    
     99300  -33836.453      183.04127     -33653.412      178.40988      180.36417      431.82954    
     99400  -33840.153      181.44159     -33658.711      178.41723      180.34848      431.97382    
     99500  -33838.149      181.34959     -33656.799      178.42271      180.33182      432.1181     
     99600  -33834.386      185.44976     -33648.936      178.43149      180.31979      432.26238    
     99700  -33831.005      188.64271     -33642.362      178.4393       180.3037       432.40666    
     99800  -33831.996      188.64153     -33643.355      178.45157      180.28915      432.55093    
     99900  -33833.55       183.0252      -33650.524      178.46099      180.27185      432.69521    
    100000  -33836.687      180.31704     -33656.37       178.47536      180.25754      432.83949    
Loop time of 2375.98 on 12 procs for 100000 steps with 4760 atoms

Performance: 3.636 ns/day, 6.600 hours/ns, 42.088 timesteps/s, 200.339 katom-step/s
77.9% CPU use with 12 MPI tasks x 1 OpenMP threads

MPI task timing breakdown:
Section |  min time  |  avg time  |  max time  |%varavg| %total
---------------------------------------------------------------
Pair    | 650.78     | 766.14     | 927.79     | 286.5 | 32.25
Neigh   | 2.3071     | 3.0176     | 3.8185     |  23.2 |  0.13
Comm    | 685.52     | 797.33     | 916.74     | 248.3 | 33.56
Output  | 1.1975     | 1.251      | 1.3179     |   3.5 |  0.05
Modify  | 724.94     | 775.93     | 812.73     |  83.4 | 32.66
Other   |            | 32.31      |            |       |  1.36

Nlocal:        396.667 ave         519 max         188 min
Histogram: 1 1 0 0 1 2 0 3 1 3
Nghost:        1573.17 ave        1784 max        1205 min
Histogram: 2 0 2 0 0 0 0 1 4 3
Neighs:              0 ave           0 max           0 min
Histogram: 12 0 0 0 0 0 0 0 0 0

Total # of neighbors = 0
Ave neighs/atom = 0
Neighbor list builds = 438
Dangerous builds = 0
Total wall time: 0:39:36
