LAMMPS (2 Aug 2023 - Update 3)
OMP_NUM_THREADS environment is not set. Defaulting to 1 thread. (src/comm.cpp:98)
  using 1 OpenMP thread(s) per MPI task

# 1------general---------------
units                             metal      #单位为lammps 中的metel 类型
dimension                    3          #模拟的维度 三维
boundary                    p p p      #周期边界条件
atom_style                  atomic   #原子类型自动
atom_modify              map array sort 100 2.0
neighbor                    3.0 bin
neigh_modify            every 1 delay 0 check yes
#2 -----global variable-------定义全局变量，方便统一修改；
variable temperature equal 300
variable tstep equal 0.001
variable pressure equal 0
variable thermalstep equal 100
variable dumpstep equal 1000
variable relaxtime equal 0
variable totaltime equal 100000
variable deformrate equal 5e-3
#3 -------model------------
#box tilt large
read_data     1.lmp
Reading data file ...
  orthogonal box = (-100 -100 -2.331251) to (100 100 38.891558)
  3 by 4 by 1 MPI processor grid
  reading atoms ...
  920 atoms
  read_data CPU = 0.196 seconds
replicate 1 1 13
Replication is creating a 1x1x13 = 13 times larger system...
  orthogonal box = (-100 -100 -2.331251) to (100 100 533.56527)
  2 by 2 by 3 MPI processor grid
  11960 atoms
  replicate CPU = 0.196 seconds
group SR type 2
3120 atoms in group SR
delete_atoms group SR
Deleted 3120 atoms, new total = 8840

write_data l.data
System init for write_data ...
WARNING: Communication cutoff is 0.0. No ghost atoms will be generated. Atoms may get lost. (src/comm_brick.cpp:210)

pair_style hybrid airebo 3.0 airebo 3.0  lj/cut 10
pair_coeff * * airebo 1 CH.airebo C NULL
Reading airebo potential file CH.airebo with DATE: 2011-10-25
pair_coeff * * airebo 2 CH.airebo NULL C
Reading airebo potential file CH.airebo with DATE: 2011-10-25
pair_coeff 1 2 lj/cut 0.00456 3.431

# 5------minimize -----------
min_style      sd
minimize       1.0e-4 1.0e-6 100 1000
Neighbor list info ...
  update: every = 1 steps, delay = 0 steps, check = yes
  max neighbors/atom: 2000, page size: 100000
  master list distance cutoff = 13.2
  ghost atom cutoff = 13.2
  binsize = 6.6, bins = 31 31 82
  5 neighbor lists, perpetual/occasional/extra = 5 0 0
  (1) pair airebo, perpetual, skip from (4)
      attributes: full, newton on, ghost
      pair build: skip/ghost
      stencil: none
      bin: none
  (2) pair airebo, perpetual, skip from (4)
      attributes: full, newton on, ghost
      pair build: skip/ghost
      stencil: none
      bin: none
  (3) pair lj/cut, perpetual, skip from (5)
      attributes: half, newton on, cut 13
      pair build: skip
      stencil: none
      bin: none
  (4) neighbor class addition, perpetual
      attributes: full, newton on, ghost
      pair build: full/bin/ghost
      stencil: full/ghost/bin/3d
      bin: standard
  (5) neighbor class addition, perpetual
      attributes: half, newton on, cut 13
      pair build: half/bin/atomonly/newton
      stencil: half/bin/3d
      bin: standard
Per MPI rank memory allocation (min/avg/max) = 10.29 | 10.67 | 11.06 Mbytes
   Step          Temp          E_pair         E_mol          TotEng         Press     
         0   0             -65412.24       0             -65412.24      -0.21847277   
         1   0             -65412.554      0             -65412.554     -0.39920433   
Loop time of 0.465338 on 12 procs for 1 steps with 8840 atoms

51.0% CPU use with 12 MPI tasks x 1 OpenMP threads

Minimization stats:
  Stopping criterion = energy tolerance
  Energy initial, next-to-last, final = 
     -65412.2403687492  -65412.2403687492  -65412.5541771045
  Force two-norm initial, final = 9.2333592 0.88479217
  Force max component initial, final = 0.098019031 0.0093756234
  Final line search alpha, max atom move = 1 0.0093756234
  Iterations, force evaluations = 1 2

MPI task timing breakdown:
Section |  min time  |  avg time  |  max time  |%varavg| %total
---------------------------------------------------------------
Pair    | 0.031841   | 0.046339   | 0.067259   |   4.2 |  9.96
Neigh   | 0          | 0          | 0          |   0.0 |  0.00
Comm    | 0.081326   | 0.097127   | 0.12293    |   4.0 | 20.87
Output  | 0          | 0          | 0          |   0.0 |  0.00
Modify  | 0          | 0          | 0          |   0.0 |  0.00
Other   |            | 0.3219     |            |       | 69.17

Nlocal:        736.667 ave         814 max         661 min
Histogram: 3 0 0 0 4 2 0 0 0 3
Nghost:        2643.33 ave        2719 max        2566 min
Histogram: 3 0 0 0 2 4 0 0 0 3
Neighs:              0 ave           0 max           0 min
Histogram: 12 0 0 0 0 0 0 0 0 0

Total # of neighbors = 0
Ave neighs/atom = 0
Neighbor list builds = 0
Dangerous builds = 0
#6----define computes------
variable nums equal count(all) #计算原子数目
variable toval equal 13.369*13.369*lz #计算系统总体积，单层石墨烯厚度为0.335nm
variable vol equal ${toval} #体系的初始体积
variable vol equal 95780.8707627492 
variable vatom equal v_vol/v_nums #单个原子体积
compute 1 all stress/atom NULL #计算体系中单原子应力
compute xalls all reduce sum c_1[1]
variable xstress equal (c_xalls)/(v_toval*10000)
compute yalls all reduce sum c_1[2]
variable ystress equal (c_yalls)/(v_toval*10000)
compute zalls all reduce sum c_1[3]
variable zstress equal (c_zalls)/(v_toval*10000)
#7---------relaxation-------------------------
timestep ${tstep}
timestep 0.001
#------------5 温度初始化------------------------------
velocity all create 300 4928459 dist gaussian units box
#------------------------------------------------------
dump   1 all atom 100 all-cy.lammpstrj
#fix    1 all npt temp 300 300  0.1 aniso 0 0  drag 1  #三个方向独立控压
fix  s all npt temp ${temperature} ${temperature} 0.1 y ${pressure} ${pressure} 10 x ${pressure} ${pressure} 10
fix  s all npt temp 300 ${temperature} 0.1 y ${pressure} ${pressure} 10 x ${pressure} ${pressure} 10
fix  s all npt temp 300 300 0.1 y ${pressure} ${pressure} 10 x ${pressure} ${pressure} 10
fix  s all npt temp 300 300 0.1 y 0 ${pressure} 10 x ${pressure} ${pressure} 10
fix  s all npt temp 300 300 0.1 y 0 0 10 x ${pressure} ${pressure} 10
fix  s all npt temp 300 300 0.1 y 0 0 10 x 0 ${pressure} 10
fix  s all npt temp 300 300 0.1 y 0 0 10 x 0 0 10
thermo                1000
thermo_modify       lost ignore
compute  2 all pe/atom
compute  pe all reduce sum c_2
variable PE equal "c_pe"
fix    pe all print 100 "${PE} " file PE.txt screen no
thermo  ${thermalstep}
thermo  100
#thermo_style  custom step pe ke etotal lx ly lz
run   ${relaxtime}
run   0
Per MPI rank memory allocation (min/avg/max) = 10.92 | 11.3 | 11.68 Mbytes
   Step          Temp          E_pair         E_mol          TotEng         Press          Volume    
         1   300           -65412.554      0             -65069.795      16.679983      21435861     
Loop time of 0.0206508 on 12 procs for 0 steps with 8840 atoms

51.6% CPU use with 12 MPI tasks x 1 OpenMP threads

MPI task timing breakdown:
Section |  min time  |  avg time  |  max time  |%varavg| %total
---------------------------------------------------------------
Pair    | 0          | 0          | 0          |   0.0 |  0.00
Neigh   | 0          | 0          | 0          |   0.0 |  0.00
Comm    | 0          | 0          | 0          |   0.0 |  0.00
Output  | 0          | 0          | 0          |   0.0 |  0.00
Modify  | 0          | 0          | 0          |   0.0 |  0.00
Other   |            | 0.02065    |            |       |100.00

Nlocal:        736.667 ave         740 max         735 min
Histogram: 8 0 0 0 0 0 0 0 0 4
Nghost:        2643.33 ave        2645 max        2640 min
Histogram: 4 0 0 0 0 0 0 0 0 8
Neighs:              0 ave           0 max           0 min
Histogram: 12 0 0 0 0 0 0 0 0 0

Total # of neighbors = 0
Ave neighs/atom = 0
Neighbor list builds = 0
Dangerous builds = 0
#8 -------tension-----------------------------
unfix s
undump  1
unfix  pe
reset_timestep 0
fix avestress all ave/atom 1 ${dumpstep} ${dumpstep} c_1[1] c_1[2] c_1[3] c_1[4] c_1[5] c_1[6]
fix avestress all ave/atom 1 1000 ${dumpstep} c_1[1] c_1[2] c_1[3] c_1[4] c_1[5] c_1[6]
fix avestress all ave/atom 1 1000 1000 c_1[1] c_1[2] c_1[3] c_1[4] c_1[5] c_1[6]

#-----calculation of strain and Cumulative compression--------
variable                tmp equal "lz"
variable                L0 equal ${tmp}
variable                L0 equal 535.896517
variable                strain equal "(lz - v_L0)/v_L0"
variable                Cumulativels equal "(lz - v_L0)/10"
fix Step all print 100 "${strain} ${Cumulativels} ${zstress}" file grapoten.txt screen no

dump 2 all custom ${dumpstep} tension.xyz type x y z f_avestress[1] f_avestress[2] f_avestress[3] f_avestress[4] f_avestress[5] f_avestress[6]
dump 2 all custom 1000 tension.xyz type x y z f_avestress[1] f_avestress[2] f_avestress[3] f_avestress[4] f_avestress[5] f_avestress[6]

fix  1 all npt temp ${temperature} ${temperature} 0.1 y ${pressure} ${pressure} 10 x ${pressure} ${pressure} 10
fix  1 all npt temp 300 ${temperature} 0.1 y ${pressure} ${pressure} 10 x ${pressure} ${pressure} 10
fix  1 all npt temp 300 300 0.1 y ${pressure} ${pressure} 10 x ${pressure} ${pressure} 10
fix  1 all npt temp 300 300 0.1 y 0 ${pressure} 10 x ${pressure} ${pressure} 10
fix  1 all npt temp 300 300 0.1 y 0 0 10 x ${pressure} ${pressure} 10
fix  1 all npt temp 300 300 0.1 y 0 0 10 x 0 ${pressure} 10
fix  1 all npt temp 300 300 0.1 y 0 0 10 x 0 0 10

thermo_style custom step pe ke etotal lx ly lz
WARNING: New thermo_style command, previous thermo_modify settings will be lost (src/output.cpp:903)
fix   2 all deform 1 z erate ${deformrate} remap x units box
fix   2 all deform 1 z erate 0.005 remap x units box
fix   3 all ave/time 2 500 1000 v_xstress v_ystress v_zstress file pressure.out
run   ${totaltime}
run   100000
WARNING: Dump 2 includes no atom IDs and is not sorted by ID. This may complicate post-processing tasks or visualization (src/dump.cpp:221)
Per MPI rank memory allocation (min/avg/max) = 12.42 | 12.8 | 13.18 Mbytes
   Step         PotEng         KinEng         TotEng           Lx             Ly             Lz      
         0  -65412.554      342.75913     -65069.795      200            200            535.89652    
       100  -65212.728      168.52198     -65044.206      200.00129      200.00187      536.16447    
       200  -65222.022      213.34436     -65008.678      199.99474      199.99557      536.43241    
       300  -65193.785      227.48129     -64966.303      199.99711      199.99736      536.70036    
       400  -65158.115      238.48342     -64919.631      199.99153      199.98984      536.96831    
       500  -65145.479      274.86265     -64870.616      199.99563      199.99075      537.23626    
       600  -65114.075      292.71678     -64821.358      199.98982      199.97937      537.50421    
       700  -65093.103      318.28423     -64774.819      199.99708      199.97935      537.77215    
       800  -65075.294      339.52979     -64735.764      199.99389      199.96586      538.0401     
       900  -65064.056      354.96616     -64709.089      200.00265      199.96264      538.30805    
      1000  -65054.888      351.17347     -64703.715      200.00119      199.94662      538.576      
      1100  -65057.931      339.61507     -64718.316      200.00996      199.94011      538.84395    
      1200  -65077.492      343.38812     -64734.104      200.01078      199.92427      539.1119     
      1300  -65073.105      334.25389     -64738.851      200.01927      199.91608      539.37984    
      1400  -65064.557      336.44224     -64728.114      200.01999      199.90013      539.64779    
      1500  -65060.412      349.24481     -64711.168      200.02716      199.89136      539.91574    
      1600  -65048.74       348.17212     -64700.568      200.0269       199.8761       540.18369    
      1700  -65054.943      350.62236     -64704.321      200.03361      199.86883      540.45164    
      1800  -65059.875      343.97209     -64715.903      200.03059      199.85379      540.71959    
      1900  -65056.467      334.33768     -64722.13       200.03543      199.84784      540.98753    
      2000  -65051.48       335.27052     -64716.21       200.02981      199.83404      541.25548    
      2100  -65047.571      345.62873     -64701.942      200.03257      199.83048      541.52343    
      2200  -65040.544      349.85275     -64690.692      200.02509      199.81907      541.79138    
      2300  -65039.188      348.39086     -64690.797      200.02486      199.81637      542.05933    
      2400  -65041.34       342.56685     -64698.773      200.01474      199.80572      542.32728    
      2500  -65039.313      335.72754     -64703.586      200.01301      199.80403      542.59522    
      2600  -65036.025      336.83714     -64699.188      200.00296      199.79413      542.86317    
      2700  -65029.459      340.82935     -64688.629      200.00031      199.79146      543.13112    
      2800  -65025.306      347.67243     -64677.633      199.99044      199.77993      543.39907    
      2900  -65023.324      350.26705     -64673.057      199.9886       199.77512      543.66702    
      3000  -65018.822      343.43704     -64675.385      199.9804       199.76215      543.93496    
      3100  -65018.028      337.41628     -64680.612      199.9804       199.75544      544.20291    
      3200  -65020.469      340.1887      -64680.281      199.97317      199.73893      544.47086    
      3300  -65015.652      343.68629     -64671.965      199.97552      199.73002      544.73881    
      3400  -65004.718      344.90494     -64659.813      199.97046      199.71107      545.00676    
      3500  -65002.353      350.42092     -64651.932      199.97463      199.69964      545.27471    
      3600  -64998.076      346.19943     -64651.876      199.97071      199.67843      545.54265    
      3700  -64995.295      339.15387     -64656.141      199.97507      199.66461      545.8106     
      3800  -64993.162      337.36529     -64655.796      199.97134      199.64242      546.07855    
      3900  -64990.292      341.67223     -64648.62       199.97572      199.6283       546.3465     
      4000  -64981.345      343.91742     -64637.428      199.97119      199.606        546.61445    
      4100  -64975.24       345.82521     -64629.415      199.97354      199.59162      546.8824     
      4200  -64968.18       341.99429     -64626.186      199.96722      199.5705       547.15034    
      4300  -64968.378      341.42662     -64626.951      199.96775      199.5578       547.41829    
      4400  -64971.878      345.22016     -64626.658      199.95895      199.53809      547.68624    
      4500  -64966.109      343.058       -64623.051      199.95711      199.52685      547.95419    
      4600  -64954.224      340.06595     -64614.158      199.94586      199.50867      548.22214    
      4700  -64946.775      343.1392      -64603.636      199.94147      199.49912      548.49009    
      4800  -64947.194      350.47439     -64596.72       199.92844      199.48261      548.75803    
      4900  -64936.957      340.96748     -64595.989      199.92199      199.47362      549.02598    
      5000  -64935.71       339.49615     -64596.214      199.90782      199.45751      549.29393    
      5100  -64931.663      338.84482     -64592.818      199.90046      199.44776      549.56188    
      5200  -64919.179      335.68796     -64583.491      199.88655      199.43081      549.82983    
      5300  -64916.639      344.62553     -64572.013      199.87995      199.42         550.09777    
      5400  -64913.115      349.59931     -64563.516      199.86723      199.40115      550.36572    
      5500  -64902.588      340.93496     -64561.653      199.8609       199.38718      550.63367    
      5600  -64902.236      342.23289     -64560.003      199.84975      199.36599      550.90162    
      5700  -64894.831      338.373       -64556.458      199.8457       199.34981      551.16957    
      5800  -64891.84       343.62821     -64548.212      199.83642      199.32564      551.43752    
      5900  -64883.327      344.79435     -64538.533      199.83343      199.30572      551.70546    
      6000  -64875.794      345.73025     -64530.064      199.82559      199.2788       551.97341    
      6100  -64866.668      342.17714     -64524.491      199.82388      199.25634      552.24136    
      6200  -64863.968      342.28899     -64521.679      199.81726      199.22811      552.50931    
      6300  -64861.361      342.51023     -64518.851      199.81424      199.20331      552.77726    
      6400  -64850.879      339.15797     -64511.721      199.80736      199.17523      553.04521    
      6500  -64840.782      339.60892     -64501.173      199.80272      199.14971      553.31315    
      6600  -64836.572      346.12774     -64490.444      199.79486      199.12284      553.5811     
      6700  -64831.595      348.04462     -64483.551      199.78706      199.09768      553.84905    
      6800  -64820.746      340.4192      -64480.327      199.7766       199.07187      554.117      
      6900  -64817.323      340.33359     -64476.989      199.76565      199.04759      554.38495    
      7000  -64809.998      339.43416     -64470.564      199.75298      199.0239       554.6529     
      7100  -64804.548      343.24183     -64461.306      199.73887      199.00081      554.92084    
      7200  -64795.494      343.86407     -64451.63       199.7241       198.97861      555.18879    
      7300  -64787.355      343.23189     -64444.123      199.70729      198.9558       555.45674    
      7400  -64778.983      340.50089     -64438.482      199.69092      198.93397      555.72469    
      7500  -64773.799      340.93126     -64432.868      199.67352      198.91139      555.99264    
      7600  -64767.04       341.14385     -64425.896      199.65636      198.88852      556.26058    
      7700  -64759.168      342.57002     -64416.598      199.63863      198.86448      556.52853    
      7800  -64746.649      340.79619     -64405.853      199.62207      198.8403       556.79648    
      7900  -64739.986      343.64378     -64396.343      199.60499      198.81383      557.06443    
      8000  -64730.824      340.77154     -64390.052      199.59003      198.78759      557.33238    
      8100  -64728.381      342.83481     -64385.546      199.5738       198.75753      557.60033    
      8200  -64718.046      338.9837      -64379.062      199.56058      198.7281       557.86827    
      8300  -64709.574      340.07098     -64369.503      199.54625      198.69486      558.13622    
      8400  -64702.144      344.26485     -64357.879      199.5351       198.66266      558.40417    
      8500  -64694.245      346.46411     -64347.781      199.52187      198.62656      558.67212    
      8600  -64685.6        345.12715     -64340.472      199.51127      198.59191      558.94007    
      8700  -64678.897      344.33851     -64334.559      199.49869      198.55422      559.20802    
      8800  -64670.541      342.6824      -64327.859      199.48781      198.51797      559.47596    
      8900  -64657.022      338.39532     -64318.626      199.47468      198.47978      559.74391    
      9000  -64654.163      346.74922     -64307.414      199.46268      198.4434       560.01186    
      9100  -64643.834      347.40793     -64296.426      199.44717      198.40533      560.27981    
      9200  -64631.218      344.49083     -64286.727      199.43284      198.37026      560.54776    
      9300  -64625.365      346.86188     -64278.503      199.41435      198.3335       560.81571    
      9400  -64616.556      345.52809     -64271.028      199.3968       198.30013      561.08365    
      9500  -64604.206      341.58202     -64262.624      199.37492      198.26478      561.3516     
      9600  -64595.573      343.93168     -64251.641      199.35401      198.23223      561.61955    
      9700  -64583.702      344.41979     -64239.282      199.33015      198.1983       561.8875     
      9800  -64569.703      341.00872     -64228.694      199.30673      198.16583      562.15545    
      9900  -64561.564      340.23281     -64221.331      199.28133      198.13167      562.42339    
     10000  -64557.217      341.71649     -64215.5        199.25609      198.09791      562.69134    
     10100  -64548.873      340.57152     -64208.302      199.23081      198.06333      562.95929    
     10200  -64541.57       345.08739     -64196.483      199.20491      198.02725      563.22724    
     10300  -64524.514      345.22562     -64179.288      199.18043      197.99128      563.49519    
     10400  -64517.213      349.08714     -64168.126      199.15486      197.95229      563.76314    
     10500  -64502.915      342.09764     -64160.817      199.13154      197.91376      564.03108    
     10600  -64497.194      343.9062      -64153.288      199.10685      197.87158      564.29903    
     10700  -64486.372      342.9138      -64143.458      199.08523      197.83016      564.56698    
     10800  -64476.702      344.2403      -64132.462      199.06189      197.78492      564.83493    
     10900  -64465.049      343.25694     -64121.792      199.04187      197.74102      565.10288    
     11000  -64455.034      343.23767     -64111.796      199.0194       197.69311      565.37083    
     11100  -64446.12       341.99225     -64104.127      198.99994      197.64735      565.63877    
     11200  -64433.056      337.62718     -64095.429      198.97771      197.59805      565.90672    
     11300  -64422.799      340.56439     -64082.234      198.95789      197.55125      566.17467    
     11400  -64407.263      342.12949     -64065.134      198.93476      197.5015       566.44262    
     11500  -64399.153      346.74832     -64052.404      198.91387      197.45441      566.71057    
     11600  -64386.184      342.37523     -64043.809      198.88929      197.40489      566.97851    
     11700  -64375.863      334.9493      -64040.914      198.86619      197.35823      567.24646    
     11800  -64367.069      336.24582     -64030.823      198.83911      197.30997      567.51441    
     11900  -64355.269      340.03675     -64015.232      198.81323      197.26467      567.78236    
     12000  -64342.367      343.57377     -63998.793      198.78363      197.21775      568.05031    
     12100  -64329.14       344.00425     -63985.135      198.75526      197.17359      568.31826    
     12200  -64319.395      344.59479     -63974.8        198.72393      197.12776      568.5862     
     12300  -64311.577      340.81555     -63970.761      198.69342      197.0836       568.85415    
     12400  -64300.204      339.57583     -63960.628      198.66096      197.03797      569.1221     
     12500  -64290.633      345.55203     -63945.081      198.62957      196.99366      569.39005    
     12600  -64273.008      343.4047      -63929.603      198.59697      196.94777      569.658      
     12700  -64258.785      341.71605     -63917.069      198.56546      196.90245      569.92595    
     12800  -64248.705      342.97712     -63905.728      198.53342      196.85533      570.19389    
     12900  -64231.206      335.90706     -63895.299      198.50277      196.80801      570.46184    
     13000  -64228.273      341.80804     -63886.465      198.47274      196.75948      570.72979    
     13100  -64214.1        340.09254     -63874.007      198.44327      196.70963      570.99774    
     13200  -64200.554      345.28248     -63855.271      198.41523      196.65918      571.26569    
     13300  -64183.979      343.96798     -63840.011      198.38732      196.60739      571.53364    
     13400  -64171.567      342.5044      -63829.062      198.36085      196.55557      571.80158    
     13500  -64164.835      342.31622     -63822.519      198.33395      196.5022       572.06953    
     13600  -64151.598      338.21782     -63813.38       198.30855      196.44916      572.33748    
     13700  -64136.137      336.93817     -63799.199      198.28285      196.39544      572.60543    
     13800  -64124.042      341.13711     -63782.904      198.25784      196.34222      572.87338    
     13900  -64111.666      345.41005     -63766.256      198.23247      196.28947      573.14132    
     14000  -64096.232      344.61312     -63751.619      198.20683      196.23743      573.40927    
     14100  -64082.905      340.87165     -63742.033      198.18056      196.18648      573.67722    
     14200  -64076.673      340.88716     -63735.786      198.15376      196.13717      573.94517    
     14300  -64062.851      341.12504     -63721.726      198.12528      196.08861      574.21312    
     14400  -64041.848      339.28306     -63702.565      198.09714      196.04261      574.48107    
     14500  -64027.389      340.51454     -63686.875      198.06716      195.99683      574.74901    
     14600  -64016.6        342.18493     -63674.415      198.03749      195.95345      575.01696    
     14700  -64006.416      343.41373     -63663.002      198.00586      195.91004      575.28491    
     14800  -63993.898      341.57913     -63652.319      197.97538      195.86913      575.55286    
     14900  -63980.825      337.46008     -63643.365      197.94363      195.82799      575.82081    
     15000  -63966.662      338.27562     -63628.386      197.9127       195.78849      576.08876    
     15100  -63950.083      343.06846     -63607.015      197.88151      195.74855      576.3567     
     15200  -63933.054      342.51789     -63590.536      197.8513       195.70913      576.62465    
     15300  -63917.62       341.83538     -63575.784      197.8216       195.66921      576.8926     
     15400  -63906.391      343.14258     -63563.248      197.79328      195.62934      577.16055    
     15500  -63895.008      340.92949     -63554.079      197.76568      195.58874      577.4285     
     15600  -63882.481      338.97558     -63543.505      197.73941      195.54777      577.69645    
     15700  -63866.755      341.1957      -63525.559      197.7145       195.50677      577.96439    
     15800  -63847.712      342.97861     -63504.734      197.69059      195.46544      578.23234    
     15900  -63837.003      346.69537     -63490.308      197.66809      195.4236       578.50029    
     16000  -63822.765      344.05831     -63478.707      197.64658      195.38192      578.76824    
     16100  -63809.515      340.91806     -63468.597      197.62605      195.34006      579.03619    
     16200  -63797.089      338.30507     -63458.784      197.6062       195.29887      579.30413    
     16300  -63785.847      338.55052     -63447.297      197.58685      195.25809      579.57208    
     16400  -63763.622      338.67214     -63424.95       197.56786      195.21839      579.84003    
     16500  -63746.245      341.04194     -63405.203      197.54879      195.17976      580.10798    
     16600  -63727.873      339.8739      -63387.999      197.52911      195.14208      580.37593    
     16700  -63715.577      343.81351     -63371.764      197.50967      195.10658      580.64388    
     16800  -63700.306      342.76695     -63357.539      197.48873      195.0713       580.91182    
     16900  -63687.028      339.39961     -63347.628      197.46834      195.03881      581.17977    
     17000  -63675.342      339.29014     -63336.052      197.44585      195.00661      581.44772    
     17100  -63657.184      340.43796     -63316.746      197.4242       194.97734      581.71567    
     17200  -63638.026      342.40924     -63295.617      197.40096      194.94844      581.98362    
     17300  -63625.588      345.15209     -63280.436      197.3783       194.92182      582.25157    
     17400  -63610.254      342.83743     -63267.417      197.3545       194.89553      582.51951    
     17500  -63594.603      338.31166     -63256.291      197.33113      194.87027      582.78746    
     17600  -63581.169      337.11642     -63244.052      197.30794      194.84557      583.05541    
     17700  -63565.275      339.30611     -63225.969      197.28554      194.82131      583.32336    
     17800  -63546.391      343.61664     -63202.775      197.26378      194.79699      583.59131    
     17900  -63531.241      346.87518     -63184.366      197.24263      194.77236      583.85926    
     18000  -63513.984      345.05398     -63168.93       197.22281      194.74751      584.1272     
     18100  -63500.523      342.28526     -63158.238      197.20378      194.72207      584.39515    
     18200  -63488.082      341.17829     -63146.904      197.18662      194.69635      584.6631     
     18300  -63468.054      339.00738     -63129.047      197.17045      194.66966      584.93105    
     18400  -63448.619      341.85169     -63106.767      197.15593      194.64266      585.199      
     18500  -63431.941      342.999       -63088.942      197.14232      194.61493      585.46694    
     18600  -63419.335      345.09681     -63074.238      197.13009      194.58732      585.73489    
     18700  -63405.717      344.08741     -63061.629      197.1184       194.5594       586.00284    
     18800  -63386.659      338.51398     -63048.145      197.10724      194.53164      586.27079    
     18900  -63372.932      341.83505     -63031.097      197.09612      194.5043       586.53874    
     19000  -63350.138      343.18834     -63006.95       197.08539      194.47805      586.80669    
     19100  -63336.566      347.82724     -62988.739      197.07475      194.45298      587.07463    
     19200  -63321.687      345.57842     -62976.109      197.06283      194.42819      587.34258    
     19300  -63304.175      340.24118     -62963.933      197.05131      194.40574      587.61053    
     19400  -63286.283      339.20377     -62947.079      197.03806      194.38372      587.87848    
     19500  -63271.462      342.70012     -62928.762      197.02556      194.36463      588.14643    
     19600  -63251.593      341.50209     -62910.091      197.01086      194.34573      588.41438    
     19700  -63232.841      342.12505     -62890.716      196.99628      194.32923      588.68232    
     19800  -63211.516      344.40469     -62867.111      196.9802       194.31298      588.95027    
     19900  -63192.806      345.57615     -62847.23       196.96458      194.29864      589.21822    
     20000  -63182.467      345.694       -62836.773      196.94794      194.28476      589.48617    
     20100  -63172.973      349.98497     -62822.988      196.93093      194.27117      589.75412    
     20200  -63149.687      342.78865     -62806.899      196.91466      194.25887      590.02207    
     20300  -63130.08       340.38808     -62789.692      196.89737      194.24519      590.29001    
     20400  -63113.2        345.04524     -62768.154      196.88194      194.23295      590.55796    
     20500  -63091.995      345.92362     -62746.072      196.86601      194.21899      590.82591    
     20600  -63075.537      344.1968      -62731.34       196.85185      194.20556      591.09386    
     20700  -63061.769      340.245       -62721.524      196.83802      194.1906       591.36181    
     20800  -63047.849      343.56401     -62704.285      196.826        194.17537      591.62975    
     20900  -63026.494      342.19046     -62684.303      196.81466      194.15887      591.8977     
     21000  -63005.601      343.81007     -62661.791      196.80484      194.14214      592.16565    
     21100  -62985.895      344.51984     -62641.375      196.79612      194.1249       592.4336     
     21200  -62970.816      342.47595     -62628.34       196.7878       194.10645      592.70155    
     21300  -62956.225      338.79811     -62617.427      196.78037      194.08844      592.9695     
     21400  -62936.019      338.71439     -62597.304      196.7728       194.06957      593.23744    
     21500  -62921.807      347.9978      -62573.81       196.76665      194.05193      593.50539    
     21600  -62901.244      347.09645     -62554.148      196.75888      194.03279      593.77334    
     21700  -62885.216      347.5574      -62537.659      196.75243      194.01569      594.04129    
     21800  -62869.898      343.36384     -62526.534      196.74397      193.99743      594.30924    
     21900  -62852.131      339.81856     -62512.312      196.73652      193.98198      594.57719    
     22000  -62826.549      337.23157     -62489.318      196.72681      193.96597      594.84513    
     22100  -62804.748      338.31455     -62466.434      196.71735      193.95214      595.11308    
     22200  -62786.949      341.99192     -62444.957      196.70584      193.93814      595.38103    
     22300  -62766.335      341.91713     -62424.418      196.69477      193.92627      595.64898    
     22400  -62748.864      343.89481     -62404.969      196.68148      193.91395      595.91693    
     22500  -62727.34       340.44397     -62386.896      196.66879      193.90365      596.18488    
     22600  -62710.181      338.29411     -62371.887      196.65369      193.89247      596.45282    
     22700  -62696.292      339.50709     -62356.785      196.64006      193.88346      596.72077    
     22800  -62678.439      340.27727     -62338.162      196.62432      193.87287      596.98872    
     22900  -62656.887      344.72338     -62312.164      196.61006      193.86395      597.25667    
     23000  -62636.283      346.02053     -62290.263      196.59453      193.85317      597.52462    
     23100  -62615.583      342.81596     -62272.767      196.58014      193.84248      597.79256    
     23200  -62598.811      340.97957     -62257.832      196.56656      193.83111      598.06051    
     23300  -62583.05       337.57321     -62245.476      196.55321      193.81828      598.32846    
     23400  -62566.549      338.46405     -62228.085      196.5414       193.80523      598.59641    
     23500  -62544.044      345.25104     -62198.793      196.5299       193.79038      598.86436    
     23600  -62523.451      346.9135      -62176.537      196.52005      193.77567      599.13231    
     23700  -62500.817      343.21988     -62157.597      196.51018      193.75905      599.40025    
     23800  -62485.623      342.60884     -62143.015      196.50216      193.74286      599.6682     
     23900  -62472.602      344.32469     -62128.278      196.49331      193.72469      599.93615    
     24000  -62451.718      343.05336     -62108.664      196.48672      193.70768      600.2041     
     24100  -62426.975      345.44705     -62081.528      196.47906      193.68895      600.47205    
     24200  -62404.735      345.2027      -62059.532      196.47332      193.67185      600.74       
     24300  -62388.096      345.54533     -62042.551      196.46524      193.65274      601.00794    
     24400  -62368.107      341.83077     -62026.276      196.45911      193.63623      601.27589    
     24500  -62348.943      340.82676     -62008.116      196.45043      193.61841      601.54384    
     24600  -62324.274      339.38399     -61984.89       196.44281      193.60299      601.81179    
     24700  -62304.096      345.18475     -61958.911      196.43267      193.58684      602.07974    
     24800  -62284.152      344.60025     -61939.551      196.42258      193.57238      602.34769    
     24900  -62269.665      344.95828     -61924.706      196.41071      193.55817      602.61563    
     25000  -62249.629      340.05584     -61909.574      196.39853      193.54536      602.88358    
     25100  -62227.093      338.90852     -61888.184      196.38451      193.53278      603.15153    
     25200  -62202.23       342.33951     -61859.891      196.3707       193.52188      603.41948    
     25300  -62186.056      348.2514      -61837.805      196.35472      193.51052      603.68743    
     25400  -62162.8        340.97258     -61821.827      196.3396       193.50093      603.95537    
     25500  -62147.074      340.58466     -61806.49       196.32281      193.49054      604.22332    
     25600  -62127.652      340.32671     -61787.325      196.30676      193.48102      604.49127    
     25700  -62107.647      345.63842     -61762.009      196.28992      193.47073      604.75922    
     25800  -62085.261      348.29717     -61736.964      196.27391      193.4606       605.02717    
     25900  -62061.271      343.43675     -61717.834      196.25824      193.44988      605.29512    
     26000  -62042.926      342.20574     -61700.72       196.24274      193.43797      605.56306    
     26100  -62024.273      341.80569     -61682.467      196.22876      193.42591      605.83101    
     26200  -62005.191      343.87555     -61661.315      196.2143       193.41171      606.09896    
     26300  -61984.966      345.56346     -61639.403      196.20263      193.39833      606.36691    
     26400  -61959.457      341.52387     -61617.933      196.19033      193.38215      606.63486    
     26500  -61933.807      337.359       -61596.448      196.18019      193.36642      606.90281    
     26600  -61917.46       344.46069     -61573          196.16952      193.34798      607.17075    
     26700  -61895.25       349.089       -61546.161      196.16139      193.33098      607.4387     
     26800  -61874.085      347.40037     -61526.684      196.15097      193.31091      607.70665    
     26900  -61856.989      343.19871     -61513.79       196.14356      193.29321      607.9746     
     27000  -61835.245      340.70641     -61494.538      196.13296      193.2724       608.24255    
     27100  -61812.122      340.66075     -61471.461      196.12496      193.25432      608.5105     
     27200  -61787.757      341.99687     -61445.76       196.11435      193.23441      608.77844    
     27300  -61765.313      343.37644     -61421.936      196.104        193.21565      609.04639    
     27400  -61746.306      342.25185     -61404.054      196.09319      193.19774      609.31434    
     27500  -61727.098      335.59434     -61391.503      196.08014      193.17903      609.58229    
     27600  -61707.451      338.91903     -61368.532      196.06782      193.16252      609.85024    
     27700  -61681.532      340.06794     -61341.464      196.05261      193.14529      610.11818    
     27800  -61659.394      341.84265     -61317.552      196.03761      193.1298       610.38613    
     27900  -61640.473      344.44352     -61296.029      196.02049      193.1139       610.65408    
     28000  -61625.428      345.74292     -61279.685      196.0036       193.09988      610.92203    
     28100  -61603.665      338.46869     -61265.196      195.98429      193.08476      611.18998    
     28200  -61581.518      339.9596      -61241.558      195.96601      193.07182      611.45793    
     28300  -61555.208      340.43106     -61214.776      195.94536      193.05719      611.72587    
     28400  -61533.5        342.04198     -61191.458      195.92693      193.04523      611.99382    
     28500  -61514.739      344.12243     -61170.617      195.90609      193.0305       612.26177    
     28600  -61492.023      339.75883     -61152.265      195.88749      193.01749      612.52972    
     28700  -61475.8        338.07579     -61137.724      195.86798      193.00242      612.79767    
     28800  -61452.637      337.63684     -61115          195.85016      192.98778      613.06562    
     28900  -61426.794      340.70857     -61086.085      195.83284      192.97181      613.33356    
     29000  -61403.373      341.43839     -61061.935      195.81605      192.95439      613.60151    
     29100  -61379.885      342.95925     -61036.926      195.80077      192.93633      613.86946    
     29200  -61358.371      346.28097     -61012.09       195.78559      192.91632      614.13741    
     29300  -61335.694      345.46938     -60990.225      195.7725       192.89668      614.40536    
     29400  -61315.752      339.98084     -60975.771      195.7586       192.87431      614.6733     
     29500  -61300.532      343.43172     -60957.1        195.74652      192.85266      614.94125    
     29600  -61269.933      338.43396     -60931.499      195.73339      192.829        615.2092     
     29700  -61245.838      340.87091     -60904.967      195.72227      192.80664      615.47715    
     29800  -61224.971      342.76956     -60882.201      195.70933      192.78258      615.7451     
     29900  -61201.489      340.63375     -60860.855      195.69714      192.75946      616.01305    
     30000  -61184.898      343.99124     -60840.907      195.68387      192.73612      616.28099    
     30100  -61164.124      338.83884     -60825.285      195.66973      192.71325      616.54894    
     30200  -61141.634      336.84777     -60804.786      195.65514      192.69157      616.81689    
     30300  -61117.301      342.08909     -60775.212      195.63905      192.67029      617.08484    
     30400  -61094.861      345.41059     -60749.45       195.62202      192.65047      617.35279    
     30500  -61071.394      346.16164     -60725.232      195.60379      192.63126      617.62074    
     30600  -61045.535      343.93984     -60701.596      195.58421      192.61298      617.88868    
     30700  -61023.959      344.83632     -60679.122      195.56418      192.59582      618.15663    
     30800  -61001.682      340.29926     -60661.383      195.54257      192.57914      618.42458    
     30900  -60982.54       339.45736     -60643.082      195.5201       192.56279      618.69253    
     31000  -60957.652      339.97888     -60617.673      195.49766      192.54778      618.96048    
     31100  -60934.295      345.77934     -60588.515      195.47392      192.53209      619.22843    
     31200  -60908.189      342.73662     -60565.452      195.45071      192.51699      619.49637    
     31300  -60885.885      341.93396     -60543.951      195.42675      192.50078      619.76432    
     31400  -60865.269      342.19218     -60523.077      195.40379      192.48465      620.03227    
     31500  -60845.336      341.69353     -60503.642      195.38103      192.46743      620.30022    
     31600  -60824.373      341.90558     -60482.467      195.3588       192.44911      620.56817    
     31700  -60793.297      339.68956     -60453.607      195.33793      192.43009      620.83611    
     31800  -60769.046      342.93673     -60426.109      195.31717      192.40931      621.10406    
     31900  -60747.754      344.76967     -60402.984      195.29832      192.3882       621.37201    
     32000  -60725.04       343.15164     -60381.889      195.27864      192.36401      621.63996    
     32100  -60703.236      338.51739     -60364.718      195.26176      192.34056      621.90791    
     32200  -60681.978      337.21844     -60344.76       195.24351      192.31373      622.17586    
     32300  -60655.866      341.15869     -60314.707      195.22774      192.28802      622.4438     
     32400  -60627.363      339.92583     -60287.438      195.21079      192.25966      622.71175    
     32500  -60608.241      343.60692     -60264.634      195.19473      192.23173      622.9797     
     32600  -60585.153      341.10544     -60244.048      195.17852      192.20337      623.24765    
     32700  -60563.495      337.45917     -60226.036      195.16171      192.17459      623.5156     
     32800  -60544.315      338.35708     -60205.958      195.14499      192.14702      623.78355    
     32900  -60520.492      342.60755     -60177.884      195.12725      192.11951      624.05149    
     33000  -60494.061      346.02681     -60148.034      195.10871      192.09308      624.31944    
     33100  -60467.375      343.06713     -60124.308      195.0889       192.06692      624.58739    
     33200  -60448.69       344.45209     -60104.238      195.06909      192.04277      624.85534    
     33300  -60428.616      343.20905     -60085.407      195.04635      192.01795      625.12329    
     33400  -60402.439      338.51015     -60063.928      195.02493      191.99623      625.39124    
     33500  -60372.861      339.11775     -60033.743      194.99943      191.97281      625.65918    
     33600  -60345.851      340.49139     -60005.36       194.97598      191.95284      625.92713    
     33700  -60326.171      344.28646     -59981.885      194.94919      191.93129      626.19508    
     33800  -60306.394      343.8752      -59962.518      194.92349      191.91197      626.46303    
     33900  -60282.41       338.49119     -59943.919      194.89609      191.89148      626.73098    
     34000  -60258.085      338.2871      -59919.798      194.86905      191.87162      626.99892    
     34100  -60228.121      341.41713     -59886.703      194.84217      191.8516       627.26687    
     34200  -60204.132      342.21037     -59861.921      194.81494      191.83079      627.53482    
     34300  -60183.224      342.06804     -59841.156      194.7887       191.81004      627.80277    
     34400  -60163.303      341.29702     -59822.006      194.76202      191.78726      628.07072    
     34500  -60141.674      342.49768     -59799.176      194.73735      191.76532      628.33867    
     34600  -60112.828      344.53093     -59768.297      194.71214      191.74087      628.60661    
     34700  -60084.167      343.18005     -59740.987      194.68934      191.71685      628.87456    
     34800  -60062.247      343.29135     -59718.956      194.6657       191.69001      629.14251    
     34900  -60042.526      342.16336     -59700.363      194.64485      191.66404      629.41046    
     35000  -60020.655      340.06411     -59680.59       194.62335      191.63594      629.67841    
     35100  -59993.587      340.37497     -59653.212      194.6031       191.60733      629.94636    
     35200  -59965.676      344.95963     -59620.717      194.58379      191.57872      630.2143     
     35300  -59942.533      344.63092     -59597.902      194.5634       191.54808      630.48225    
     35400  -59918.999      340.56745     -59578.431      194.54538      191.51949      630.7502     
     35500  -59899.723      341.99095     -59557.732      194.52443      191.4883       631.01815    
     35600  -59870.201      338.11483     -59532.086      194.50609      191.46022      631.2861     
     35700  -59843.026      343.1856      -59499.84       194.48391      191.42938      631.55405    
     35800  -59821.472      346.1123      -59475.359      194.46485      191.40261      631.82199    
     35900  -59795.747      341.24193     -59454.505      194.44139      191.37301      632.08994    
     36000  -59772.007      337.53179     -59434.475      194.41978      191.34705      632.35789    
     36100  -59754.216      340.77053     -59413.445      194.39508      191.31959      632.62584    
     36200  -59726.139      338.95243     -59387.186      194.3707       191.29409      632.89379    
     36300  -59697.326      341.83134     -59355.494      194.34556      191.26957      633.16173    
     36400  -59672.081      344.01787     -59328.063      194.31752      191.24382      633.42968    
     36500  -59646.619      343.83399     -59302.785      194.29127      191.22106      633.69763    
     36600  -59625.094      345.7017      -59279.392      194.26125      191.19565      633.96558    
     36700  -59603.555      343.41078     -59260.144      194.23378      191.17363      634.23353    
     36800  -59578.33       338.05793     -59240.272      194.20302      191.14903      634.50148    
     36900  -59555.103      340.99512     -59214.108      194.1742       191.12626      634.76942    
     37000  -59530.978      348.6078      -59182.37       194.14418      191.1024       635.03737    
     37100  -59500.585      343.17432     -59157.41       194.11483      191.07858      635.30532    
     37200  -59478.597      343.50123     -59135.096      194.08636      191.0549       635.57327    
     37300  -59456.105      341.0731      -59115.032      194.05759      191.02979      635.84122    
     37400  -59433.601      340.28285     -59093.318      194.03068      191.00507      636.10917    
     37500  -59406.127      344.19052     -59061.937      194.00344      190.97829      636.37711    
     37600  -59379.39       347.28247     -59032.108      193.97856      190.9521       636.64506    
     37700  -59354.638      345.96301     -59008.675      193.95339      190.92369      636.91301    
     37800  -59331.978      342.83022     -58989.147      193.93015      190.89584      637.18096    
     37900  -59309.464      342.11073     -58967.354      193.90676      190.86592      637.44891    
     38000  -59282.178      343.46552     -58938.712      193.88511      190.8363       637.71686    
     38100  -59254.329      347.93109     -58906.398      193.86358      190.80568      637.9848     
     38200  -59229.371      346.12178     -58883.249      193.84236      190.7745       638.25275    
     38300  -59201.862      338.73982     -58863.122      193.82169      190.74349      638.5207     
     38400  -59184.316      343.02667     -58841.289      193.80068      190.71147      638.78865    
     38500  -59156.753      341.1244      -58815.629      193.78063      190.68117      639.0566     
     38600  -59124.569      342.7196      -58781.849      193.75852      190.64949      639.32454    
     38700  -59102.3        346.03958     -58756.261      193.73764      190.62027      639.59249    
     38800  -59079.788      343.96321     -58735.825      193.71389      190.58993      639.86044    
     38900  -59057.88       342.60849     -58715.272      193.69159      190.56259      640.12839    
     39000  -59031.459      341.14853     -58690.311      193.6666       190.5345       640.39634    
     39100  -59008.598      348.8525      -58659.745      193.64177      190.50858      640.66429    
     39200  -58972.296      344.38116     -58627.915      193.61563      190.48319      640.93223    
     39300  -58949.593      342.9591      -58606.634      193.58825      190.45854      641.20018    
     39400  -58929.438      342.17044     -58587.268      193.56131      190.43577      641.46813    
     39500  -58904.757      340.85208     -58563.904      193.53205      190.41222      641.73608    
     39600  -58878.786      341.37033     -58537.415      193.50481      190.39159      642.00403    
     39700  -58849.502      344.78124     -58504.721      193.47376      190.36825      642.27198    
     39800  -58826.188      348.374       -58477.814      193.4469       190.34901      642.53992    
     39900  -58799.477      343.07749     -58456.4        193.41558      190.32572      642.80787    
     40000  -58775.412      340.93952     -58434.473      193.38885      190.30631      643.07582    
     40100  -58752.646      342.12944     -58410.517      193.35936      190.28349      643.34377    
     40200  -58728.385      342.63083     -58385.755      193.33222      190.26173      643.61172    
     40300  -58698.454      341.03264     -58357.422      193.30556      190.23889      643.87967    
     40400  -58672.268      346.83343     -58325.434      193.27917      190.2146       644.14761    
     40500  -58644.075      342.72532     -58301.349      193.25577      190.19166      644.41556    
     40600  -58623          341.10825     -58281.891      193.22995      190.16386      644.68351    
     40700  -58603.081      344.2416      -58258.839      193.20904      190.13951      644.95146    
     40800  -58570.647      339.37206     -58231.275      193.18473      190.10935      645.21941    
     40900  -58552.687      348.53787     -58204.149      193.16551      190.08318      645.48735    
     41000  -58520.306      343.03019     -58177.276      193.14302      190.0521       645.7553     
     41100  -58492.659      340.80018     -58151.859      193.12376      190.02337      646.02325    
     41200  -58473.432      341.33502     -58132.097      193.10367      189.99303      646.2912     
     41300  -58451.773      340.14374     -58111.629      193.08369      189.96238      646.55915    
     41400  -58423.622      340.52709     -58083.095      193.06519      189.93329      646.8271     
     41500  -58394.443      342.32598     -58052.117      193.04413      189.90248      647.09504    
     41600  -58370.513      345.18272     -58025.33       193.02582      189.87508      647.36299    
     41700  -58343.73       342.82708     -58000.903      193.00367      189.84521      647.63094    
     41800  -58321.965      343.87769     -57978.087      192.98461      189.81948      647.89889    
     41900  -58297.473      337.71        -57959.763      192.96176      189.79223      648.16684    
     42000  -58270.233      337.03591     -57933.197      192.93969      189.76724      648.43479    
     42100  -58245.676      344.57285     -57901.104      192.91731      189.74339      648.70273    
     42200  -58214.614      341.75096     -57872.863      192.89298      189.7198       648.97068    
     42300  -58189.359      343.84303     -57845.516      192.86902      189.69817      649.23863    
     42400  -58164.055      344.40126     -57819.654      192.84317      189.67631      649.50658    
     42500  -58138.533      341.73879     -57796.794      192.8178       189.65614      649.77453    
     42600  -58114.012      338.11921     -57775.893      192.79158      189.6362       650.04248    
     42700  -58092.446      342.39785     -57750.049      192.76556      189.6175       650.31042    
     42800  -58061.777      345.1976      -57716.58       192.7387       189.59801      650.57837    
     42900  -58034.721      345.95197     -57688.769      192.7124       189.57907      650.84632    
     43000  -58010.402      345.88936     -57664.512      192.68649      189.56025      651.11427    
     43100  -57984.204      341.05517     -57643.149      192.66086      189.54093      651.38222    
     43200  -57964.822      342.6474      -57622.174      192.63609      189.52148      651.65016    
     43300  -57936.375      342.021       -57594.354      192.61182      189.50123      651.91811    
     43400  -57901.801      342.94281     -57558.858      192.58858      189.48066      652.18606    
     43500  -57875.462      342.98387     -57532.478      192.56617      189.45919      652.45401    
     43600  -57856.977      345.84515     -57511.131      192.54543      189.43764      652.72196    
     43700  -57833.277      344.04032     -57489.237      192.52467      189.41414      652.98991    
     43800  -57804.558      341.55588     -57463.002      192.50596      189.39121      653.25785    
     43900  -57774.11       344.59453     -57429.516      192.48737      189.36676      653.5258     
     44000  -57748.213      348.03566     -57400.177      192.4701       189.34287      653.79375    
     44100  -57722.12       343.91349     -57378.206      192.45296      189.31792      654.0617     
     44200  -57695.736      339.3134      -57356.422      192.43662      189.29349      654.32965    
     44300  -57675.163      343.08732     -57332.076      192.42015      189.26839      654.5976     
     44400  -57646.993      342.01584     -57304.977      192.4042       189.24402      654.86554    
     44500  -57619.018      347.81041     -57271.208      192.38825      189.21987      655.13349    
     44600  -57590.725      348.23681     -57242.489      192.37122      189.19546      655.40144    
     44700  -57568.436      346.85022     -57221.586      192.35515      189.17277      655.66939    
     44800  -57540.949      341.90729     -57199.041      192.33724      189.14946      655.93734    
     44900  -57512.776      339.68615     -57173.09       192.31996      189.12775      656.20529    
     45000  -57487.595      343.62762     -57143.967      192.30042      189.10556      656.47323    
     45100  -57459.133      347.92425     -57111.208      192.28175      189.0855       656.74118    
     45200  -57431.264      349.66316     -57081.601      192.26072      189.0644       657.00913    
     45300  -57408.416      343.32867     -57065.087      192.24082      189.04559      657.27708    
     45400  -57389.424      346.47389     -57042.951      192.2184       189.02584      657.54503    
     45500  -57359.226      340.13507     -57019.091      192.1969       189.00809      657.81297    
     45600  -57336.187      344.41458     -56991.772      192.17416      188.99002      658.08092    
     45700  -57307.612      346.23788     -56961.374      192.15156      188.97312      658.34887    
     45800  -57279.805      348.28781     -56931.517      192.12893      188.95669      658.61682    
     45900  -57252.719      343.31323     -56909.405      192.10558      188.93961      658.88477    
     46000  -57231.117      341.46116     -56889.656      192.08358      188.924        659.15272    
     46100  -57202.834      340.3491      -56862.485      192.06074      188.90723      659.42066    
     46200  -57176.754      344.87532     -56831.879      192.0392       188.8914       659.68861    
     46300  -57146.211      344.92607     -56801.285      192.01749      188.87474      659.95656    
     46400  -57121.691      345.79411     -56775.897      191.99662      188.85784      660.22451    
     46500  -57096.837      338.31967     -56758.517      191.9773       188.84112      660.49246    
     46600  -57073.824      341.18618     -56732.638      191.95712      188.82211      660.76041    
     46700  -57045.432      343.88585     -56701.546      191.93978      188.80446      661.02835    
     46800  -57017.788      347.00826     -56670.779      191.92177      188.7845       661.2963     
     46900  -56987.645      343.48088     -56644.165      191.90571      188.76488      661.56425    
     47000  -56964.951      339.10199     -56625.849      191.89036      188.74443      661.8322     
     47100  -56943.702      341.44945     -56602.252      191.87528      188.72292      662.10015    
     47200  -56910.254      339.27792     -56570.977      191.86148      188.70166      662.3681     
     47300  -56883.287      343.63154     -56539.656      191.84692      188.67945      662.63604    
     47400  -56858.052      345.17588     -56512.876      191.83395      188.65839      662.90399    
     47500  -56831.835      340.83507     -56491          191.82002      188.63626      663.17194    
     47600  -56810.901      340.96885     -56469.932      191.80686      188.61515      663.43989    
     47700  -56784.263      342.88056     -56441.382      191.79261      188.59349      663.70784    
     47800  -56751.59       340.68996     -56410.9        191.77878      188.57302      663.97578    
     47900  -56723.34       341.67375     -56381.667      191.7647       188.55335      664.24373    
     48000  -56699.419      344.49383     -56354.925      191.74898      188.53332      664.51168    
     48100  -56676.461      340.82515     -56335.636      191.73388      188.51555      664.77963    
     48200  -56647.226      336.26443     -56310.962      191.71689      188.49743      665.04758    
     48300  -56622.15       342.57473     -56279.575      191.70044      188.48172      665.31553    
     48400  -56594.846      346.52322     -56248.323      191.68202      188.4656       665.58347    
     48500  -56564.86       343.00768     -56221.853      191.66392      188.45127      665.85142    
     48600  -56538.823      341.81267     -56197.01       191.64474      188.43715      666.11937    
     48700  -56514.431      342.94829     -56171.483      191.62498      188.42377      666.38732    
     48800  -56491.362      345.8149      -56145.547      191.60603      188.41159      666.65527    
     48900  -56463.434      345.28981     -56118.144      191.5848       188.39784      666.92322    
     49000  -56429.798      340.04695     -56089.751      191.56627      188.38661      667.19116    
     49100  -56404.063      341.97508     -56062.088      191.54503      188.37282      667.45911    
     49200  -56379.587      346.5774      -56033.01       191.52628      188.36086      667.72706    
     49300  -56350.516      346.01892     -56004.497      191.50593      188.3468       667.99501    
     49400  -56328.047      347.55768     -55980.489      191.48664      188.33266      668.26296    
     49500  -56301.747      342.6833      -55959.063      191.46833      188.31868      668.5309     
     49600  -56275.479      342.19774     -55933.281      191.44873      188.30217      668.79885    
     49700  -56248.322      343.60277     -55904.719      191.4328       188.28801      669.0668     
     49800  -56218.916      348.42498     -55870.491      191.41417      188.26927      669.33475    
     49900  -56189.111      347.58332     -55841.528      191.39947      188.25299      669.6027     
     50000  -56167.528      345.95536     -55821.573      191.38356      188.23409      669.87065    
     50100  -56139.907      343.25197     -55796.655      191.36947      188.21555      670.13859    
     50200  -56115.687      343.80872     -55771.878      191.35604      188.19677      670.40654    
     50300  -56090.166      343.12475     -55747.041      191.34243      188.17653      670.67449    
     50400  -56063.175      341.94185     -55721.233      191.33075      188.15763      670.94244    
     50500  -56035.608      341.83982     -55693.768      191.31754      188.13655      671.21039    
     50600  -56003.959      342.15456     -55661.805      191.30653      188.11752      671.47834    
     50700  -55979.023      347.8782      -55631.145      191.29377      188.0967       671.74628    
     50800  -55952.551      345.01729     -55607.534      191.28204      188.07695      672.01423    
     50900  -55929.321      343.19208     -55586.129      191.27016      188.05753      672.28218    
     51000  -55898.357      339.24572     -55559.111      191.25741      188.03812      672.55013    
     51100  -55868.67       339.93514     -55528.734      191.24485      188.01984      672.81808    
     51200  -55844.823      347.85854     -55496.965      191.23055      188.00109      673.08603    
     51300  -55815.378      348.96308     -55466.415      191.21733      187.98457      673.35397    
     51400  -55790.685      347.26739     -55443.418      191.20175      187.96697      673.62192    
     51500  -55762.612      340.02134     -55422.591      191.18745      187.95228      673.88987    
     51600  -55735.988      338.92517     -55397.063      191.16966      187.93591      674.15782    
     51700  -55713.463      344.39226     -55369.071      191.15394      187.92268      674.42577    
     51800  -55683.25       344.24521     -55339.005      191.13581      187.90846      674.69371    
     51900  -55652.852      346.00477     -55306.847      191.11752      187.89497      674.96166    
     52000  -55623.967      342.3989      -55281.568      191.10059      187.88351      675.22961    
     52100  -55604.616      343.56908     -55261.047      191.08         187.86939      675.49756    
     52200  -55574.636      339.59082     -55235.046      191.06316      187.85942      675.76551    
     52300  -55547.296      339.57509     -55207.721      191.04169      187.84516      676.03346    
     52400  -55525.438      346.2526      -55179.186      191.02509      187.83607      676.3014     
     52500  -55494.195      344.03767     -55150.157      191.00409      187.82247      676.56935    
     52600  -55468.147      344.38087     -55123.766      190.98629      187.81147      676.8373     
     52700  -55443.659      343.39325     -55100.265      190.96815      187.79941      677.10525    
     52800  -55411.996      335.97485     -55076.021      190.94974      187.78582      677.3732     
     52900  -55390.431      344.12376     -55046.307      190.9341       187.77394      677.64115    
     53000  -55359.324      349.57754     -55009.747      190.91605      187.75842      677.90909    
     53100  -55324.978      344.95848     -54980.019      190.90179      187.74561      678.17704    
     53200  -55304.125      347.23652     -54956.889      190.88569      187.72947      678.44499    
     53300  -55275.644      342.99911     -54932.645      190.87197      187.71416      678.71294    
     53400  -55251.481      344.81306     -54906.668      190.85807      187.69748      678.98089    
     53500  -55217.445      338.50816     -54878.937      190.84407      187.67929      679.24884    
     53600  -55193.694      342.7486      -54850.946      190.83236      187.66205      679.51678    
     53700  -55168.62       343.46799     -54825.152      190.81884      187.6421       679.78473    
     53800  -55141.862      340.76607     -54801.096      190.80758      187.62367      680.05268    
     53900  -55114.478      340.08643     -54774.392      190.79483      187.60321      680.32063    
     54000  -55086.425      341.51763     -54744.908      190.78331      187.58388      680.58858    
     54100  -55059.64       348.01869     -54711.621      190.77085      187.56337      680.85652    
     54200  -55028.509      347.27445     -54681.235      190.75918      187.54421      681.12447    
     54300  -55003.523      343.21801     -54660.305      190.74605      187.52423      681.39242    
     54400  -54978.406      343.10159     -54635.305      190.73333      187.50566      681.66037    
     54500  -54952.713      344.39173     -54608.322      190.71972      187.48763      681.92832    
     54600  -54927.362      344.95878     -54582.403      190.70514      187.47002      682.19627    
     54700  -54897.471      339.30947     -54558.161      190.69023      187.45321      682.46421    
     54800  -54871.607      338.34951     -54533.257      190.67478      187.43744      682.73216    
     54900  -54842.687      337.74297     -54504.944      190.65871      187.42233      683.00011    
     55000  -54813.78       345.0091      -54468.771      190.64176      187.40756      683.26806    
     55100  -54785.25       347.61659     -54437.633      190.62457      187.3937       683.53601    
     55200  -54754.431      341.30577     -54413.125      190.60624      187.37968      683.80396    
     55300  -54733.066      344.1568      -54388.909      190.58875      187.36715      684.0719     
     55400  -54705.847      345.16758     -54360.679      190.56949      187.35371      684.33985    
     55500  -54678.417      346.30585     -54332.111      190.55097      187.34139      684.6078     
     55600  -54648.002      341.99316     -54306.008      190.53169      187.32883      684.87575    
     55700  -54625.191      341.10908     -54284.082      190.51221      187.31587      685.1437     
     55800  -54593.373      338.01496     -54255.358      190.49405      187.30401      685.41165    
     55900  -54566.971      343.19015     -54223.781      190.47426      187.29001      685.67959    
     56000  -54537.171      344.27143     -54192.899      190.4569       187.27776      685.94754    
     56100  -54508.981      342.3706      -54166.61       190.43796      187.26272      686.21549    
     56200  -54484.71       340.70341     -54144.007      190.42125      187.24937      686.48344    
     56300  -54453.177      338.05542     -54115.122      190.40393      187.23363      686.75139    
     56400  -54427.95       343.78612     -54084.164      190.38824      187.21864      687.01933    
     56500  -54400.186      346.45381     -54053.732      190.37198      187.20195      687.28728    
     56600  -54375.092      344.53203     -54030.56       190.35737      187.18589      687.55523    
     56700  -54347.288      340.76555     -54006.523      190.34294      187.16911      687.82318    
     56800  -54317.222      341.31318     -53975.909      190.32814      187.151        688.09113    
     56900  -54290.43       346.72367     -53943.706      190.31534      187.13403      688.35908    
     57000  -54256.713      343.10095     -53913.612      190.30084      187.11479      688.62702    
     57100  -54231.379      340.98461     -53890.394      190.28903      187.09762      688.89497    
     57200  -54206.203      341.49482     -53864.709      190.27524      187.07814      689.16292    
     57300  -54176.601      341.30156     -53835.3        190.26346      187.06051      689.43087    
     57400  -54147.555      343.07988     -53804.475      190.24952      187.04051      689.69882    
     57500  -54114.337      343.17822     -53771.159      190.23706      187.02245      689.96677    
     57600  -54086.981      345.7915      -53741.19       190.22272      187.00263      690.23471    
     57700  -54061.242      342.49639     -53718.746      190.20969      186.98469      690.50266    
     57800  -54032.887      340.64494     -53692.242      190.19475      186.96545      690.77061    
     57900  -54007.339      342.70393     -53664.636      190.1801       186.94737      691.03856    
     58000  -53977.132      338.88987     -53638.242      190.16419      186.92874      691.30651    
     58100  -53953.477      341.02408     -53612.453      190.14858      186.91143      691.57446    
     58200  -53928.172      339.23479     -53588.937      190.13204      186.89432      691.8424     
     58300  -53899.843      336.23082     -53563.612      190.11454      186.87757      692.11035    
     58400  -53872.987      341.98431     -53531.002      190.09677      186.86157      692.3783     
     58500  -53838.394      340.64058     -53497.753      190.07793      186.84563      692.64625    
     58600  -53813.075      347.82325     -53465.251      190.05935      186.83073      692.9142     
     58700  -53784.912      347.26106     -53437.651      190.03958      186.81589      693.18214    
     58800  -53752.49       337.95167     -53414.539      190.0197       186.80164      693.45009    
     58900  -53728.665      343.71581     -53384.949      189.99987      186.78771      693.71804    
     59000  -53700.931      345.83439     -53355.097      189.97977      186.7738       693.98599    
     59100  -53669.652      341.01764     -53328.635      189.95988      186.75999      694.25394    
     59200  -53646.602      342.97857     -53303.623      189.93969      186.74539      694.52189    
     59300  -53617.263      344.87533     -53272.388      189.92036      186.73135      694.78983    
     59400  -53586.322      345.48648     -53240.835      189.90032      186.71586      695.05778    
     59500  -53554.683      345.00945     -53209.674      189.8817       186.70126      695.32573    
     59600  -53519.398      338.47571     -53180.923      189.86289      186.68512      695.59368    
     59700  -53498.919      345.00355     -53153.915      189.84517      186.66927      695.86163    
     59800  -53467.865      342.41024     -53125.454      189.82699      186.65155      696.12958    
     59900  -53437.522      341.85851     -53095.663      189.81018      186.63413      696.39752    
     60000  -53413.712      346.21252     -53067.5        189.79379      186.6163       696.66547    
     60100  -53383.805      343.76883     -53040.037      189.77707      186.59705      696.93342    
     60200  -53358.093      348.17991     -53009.914      189.76251      186.5791       697.20137    
     60300  -53323.007      343.10287     -52979.904      189.7462       186.55812      697.46932    
     60400  -53295.726      343.91789     -52951.808      189.73249      186.53946      697.73727    
     60500  -53264.251      340.2681      -52923.983      189.71629      186.51778      698.00521    
     60600  -53236.768      343.4621      -52893.306      189.70266      186.49832      698.27316    
     60700  -53206.87       343.5089      -52863.361      189.68799      186.47762      698.54111    
     60800  -53179.679      345.76952     -52833.91       189.67319      186.45685      698.80906    
     60900  -53151.923      346.76262     -52805.161      189.65883      186.43712      699.07701    
     61000  -53119.472      343.77459     -52775.697      189.64311      186.41654      699.34495    
     61100  -53090.062      343.72748     -52746.335      189.62782      186.39724      699.6129     
     61200  -53060.611      343.08341     -52717.527      189.61202      186.37816      699.88085    
     61300  -53026.026      338.14598     -52687.88       189.59613      186.35981      700.1488     
     61400  -53003.381      345.68701     -52657.694      189.57891      186.34133      700.41675    
     61500  -52970.056      343.57632     -52626.479      189.56118      186.32334      700.6847     
     61600  -52939.669      344.30785     -52595.361      189.54332      186.30598      700.95264    
     61700  -52911.55       346.14211     -52565.408      189.52433      186.28854      701.22059    
     61800  -52877.211      341.9983      -52535.213      189.50518      186.27156      701.48854    
     61900  -52852.327      346.23113     -52506.096      189.48565      186.25479      701.75649    
     62000  -52823.84       347.03442     -52476.806      189.46502      186.23764      702.02444    
     62100  -52791.294      343.95216     -52447.342      189.44484      186.22143      702.29239    
     62200  -52758.946      341.79572     -52417.15       189.42394      186.20488      702.56033    
     62300  -52733.518      346.74357     -52386.774      189.40332      186.18902      702.82828    
     62400  -52696.93       341.42912     -52355.501      189.38134      186.17222      703.09623    
     62500  -52668.548      343.20961     -52325.339      189.36083      186.15678      703.36418    
     62600  -52643.218      348.07117     -52295.147      189.33903      186.13999      703.63213    
     62700  -52607.846      343.09471     -52264.751      189.31823      186.12435      703.90008    
     62800  -52577.745      343.78161     -52233.964      189.29644      186.10706      704.16802    
     62900  -52549.336      346.15077     -52203.185      189.27661      186.09126      704.43597    
     63000  -52517.49       344.67704     -52172.813      189.25547      186.07354      704.70392    
     63100  -52484.863      342.8976      -52141.966      189.23634      186.05676      704.97187    
     63200  -52454.179      343.01238     -52111.166      189.21676      186.03871      705.23982    
     63300  -52424.756      344.86666     -52079.889      189.1979       186.0202       705.50776    
     63400  -52393.978      345.78159     -52048.196      189.17934      186.00121      705.77571    
     63500  -52360.325      344.31352     -52016.011      189.16128      185.98163      706.04366    
     63600  -52331.603      347.24816     -51984.355      189.14415      185.96195      706.31161    
     63700  -52293.99       341.85633     -51952.134      189.12647      185.94115      706.57956    
     63800  -52264.737      343.65713     -51921.08       189.1104       185.92116      706.84751    
     63900  -52233.428      342.75662     -51890.672      189.09335      185.89939      707.11545    
     64000  -52204.503      345.86213     -51858.641      189.07784      185.87903      707.3834     
     64100  -52169.06       342.68425     -51826.376      189.06108      185.85692      707.65135    
     64200  -52144.237      349.59615     -51794.641      189.04565      185.83641      707.9193     
     64300  -52106.686      345.2483      -51761.437      189.0286       185.81435      708.18725    
     64400  -52074.785      345.89227     -51728.892      189.0132       185.79418      708.4552     
     64500  -52043.642      346.74767     -51696.895      188.99547      185.77221      708.72314    
     64600  -52009.104      344.9453      -51664.159      188.97975      185.75273      708.99109    
     64700  -51975.273      343.281       -51631.992      188.96145      185.73145      709.25904    
     64800  -51944.239      345.14598     -51599.093      188.94548      185.71328      709.52699    
     64900  -51906.413      340.35952     -51566.054      188.92583      185.6925       709.79494    
     65000  -51877.227      344.33682     -51532.89       188.90957      185.67577      710.06289    
     65100  -51842.764      343.02627     -51499.738      188.88897      185.65586      710.33083    
     65200  -51810.096      343.84926     -51466.247      188.87173      185.63978      710.59878    
     65300  -51775.96       344.34029     -51431.619      188.85064      185.62088      710.86673    
     65400  -51740.667      343.88804     -51396.779      188.83221      185.60532      711.13468    
     65500  -51712.69       350.00183     -51362.688      188.81045      185.58725      711.40263    
     65600  -51672.499      344.04158     -51328.457      188.79141      185.57205      711.67057    
     65700  -51640.444      345.47864     -51294.965      188.7697       185.55448      711.93852    
     65800  -51605.523      344.70557     -51260.817      188.74953      185.53854      712.20647    
     65900  -51574.085      346.89912     -51227.186      188.72879      185.52205      712.47442    
     66000  -51539.12       344.60154     -51194.518      188.70779      185.50514      712.74237    
     66100  -51502.772      343.41615     -51159.355      188.68766      185.48878      713.01032    
     66200  -51470.55       345.37889     -51125.172      188.66702      185.47183      713.27826    
     66300  -51441.954      352.40178     -51089.552      188.64698      185.4551       713.54621    
     66400  -51398.614      343.91516     -51054.698      188.62715      185.43802      713.81416    
     66500  -51362.162      343.01672     -51019.145      188.60726      185.42043      714.08211    
     66600  -51331.691      347.16368     -50984.528      188.58891      185.40393      714.35006    
     66700  -51296.289      347.15599     -50949.133      188.56935      185.38547      714.61801    
     66800  -51259.263      345.62527     -50913.638      188.55176      185.36829      714.88595    
     66900  -51219.813      342.13701     -50877.676      188.53335      185.34963      715.1539     
     67000  -51186.1        344.57874     -50841.522      188.51644      185.33181      715.42185    
     67100  -51152.073      347.20523     -50804.868      188.49924      185.31306      715.6898     
     67200  -51117.921      349.12063     -50768.8        188.48274      185.29445      715.95775    
     67300  -51078.771      345.44637     -50733.324      188.46656      185.27586      716.22569    
     67400  -51040.64       343.69591     -50696.944      188.44996      185.2561       716.49364    
     67500  -51003.925      344.46297     -50659.462      188.43518      185.23814      716.76159    
     67600  -50967.407      344.33568     -50623.072      188.4188       185.21802      717.02954    
     67700  -50928.512      343.39889     -50585.113      188.40462      185.20022      717.29749    
     67800  -50895.177      347.03138     -50548.145      188.38856      185.18022      717.56544    
     67900  -50859.809      349.46351     -50510.346      188.37395      185.16212      717.83338    
     68000  -50822.768      349.0418      -50473.726      188.35871      185.14358      718.10133    
     68100  -50787.971      352.26847     -50435.703      188.34344      185.12516      718.36928    
     68200  -50747.469      348.97324     -50398.496      188.32834      185.10764      718.63723    
     68300  -50707.466      347.21767     -50360.248      188.31244      185.08968      718.90518    
     68400  -50671.037      347.54497     -50323.492      188.29748      185.07311      719.17313    
[...]
     81600  -62105.865      442.67085     -61663.194      187.66789      184.64253      754.5423     
     81700  -62283.185      441.00603     -61842.179      187.68153      184.65962      754.81024    
     81800  -62458.481      439.36135     -62019.119      187.69504      184.67655      755.07819    
     81900  -62631.095      437.00069     -62194.095      187.70843      184.69334      755.34614    
     82000  -62801.823      434.62624     -62367.197      187.7217       184.70997      755.61409    
     82100  -62971.109      432.57641     -62538.532      187.73485      184.72645      755.88204    
     82200  -63138.479      430.28542     -62708.193      187.74788      184.74279      756.14999    
     82300  -63298.446      424.33074     -62874.116      187.76098      184.75915      756.41793    
     82400  -63452.092      418.42483     -63033.667      187.77416      184.77557      756.68588    
     82500  -63598.912      412.2595      -63186.652      187.7873       184.79193      756.95383    
     82600  -63739.67       406.39241     -63333.277      187.80057      184.80838      757.22178    
     82700  -63874.609      400.9255      -63473.683      187.81381      184.82479      757.48973    
     82800  -64003.324      395.43765     -63607.886      187.82721      184.84132      757.75768    
     82900  -64125.723      389.8482      -63735.875      187.84062      184.85785      758.02562    
     83000  -64242.229      384.62185     -63857.607      187.85422      184.87452      758.29357    
     83100  -64352.345      379.33252     -63973.013      187.86787      184.89124      758.56152    
     83200  -64456.249      374.24192     -64082.007      187.88173      184.90813      758.82947    
     83300  -64553.777      369.29764     -64184.479      187.8957       184.9251       759.09742    
     83400  -64644.811      364.52213     -64280.289      187.90991      184.94229      759.36536    
     83500  -64729.175      359.91577     -64369.259      187.92428      184.95962      759.63331    
     83600  -64806.721      355.55509     -64451.166      187.93892      184.97719      759.90126    
     83700  -64877.203      351.4719      -64525.731      187.95379      184.99497      760.16921    
     83800  -64940.336      347.72509     -64592.611      187.96899      185.01305      760.43716    
     83900  -64995.808      344.43497     -64651.373      187.98442      185.03139      760.70511    
     84000  -65044.09       342.38265     -64701.707      187.99994      185.04971      760.97305    
     84100  -65085.511      341.27692     -64744.234      188.01548      185.06789      761.241      
     84200  -65119.813      340.13092     -64779.682      188.03119      185.08622      761.50895    
     84300  -65146.918      339.06801     -64807.85       188.04706      185.10462      761.7769     
     84400  -65166.737      338.58648     -64828.15       188.06318      185.12314      762.04485    
     84500  -65179.195      338.71445     -64840.481      188.07948      185.14174      762.3128     
     84600  -65184.188      338.8857      -64845.302      188.09593      185.16041      762.58074    
     84700  -65181.56       338.63009     -64842.93       188.11233      185.17908      762.84869    
     84800  -65170.572      337.67327     -64832.899      188.12812      185.19715      763.11664    
     84900  -65150.264      336.48297     -64813.781      188.14366      185.21502      763.38459    
     85000  -65119.818      335.46062     -64784.357      188.15875      185.23247      763.65254    
     85100  -65078.859      334.00617     -64744.852      188.17368      185.24984      763.92048    
     85200  -65027.621      331.35088     -64696.271      188.18822      185.26684      764.18843    
     85300  -64965.448      326.24864     -64639.2        188.20272      185.28376      764.45638    
     85400  -64891.668      318.59534     -64573.073      188.21684      185.30041      764.72433    
     85500  -64806.479      308.71026     -64497.769      188.23083      185.31694      764.99228    
     85600  -64710.012      295.25756     -64414.754      188.24442      185.33319      765.26023    
     85700  -64603.281      277.27557     -64326.005      188.25772      185.34928      765.52817    
     85800  -64488.65       254.47088     -64234.179      188.27061      185.36519      765.79612    
     85900  -64369.885      227.00627     -64142.879      188.28247      185.38048      766.06407    
     86000  -64252.556      196.31584     -64056.24       188.29377      185.39554      766.33202    
     86100  -64174.638      199.47595     -63975.162      188.30368      185.40941      766.59997    
     86200  -64200.177      328.59022     -63871.587      188.29511      185.40508      766.86792    
     86300  -64248.323      437.5875      -63810.735      188.3032       185.41622      767.13586    
     86400  -64246.781      336.6743      -63910.106      188.31573      185.43067      767.40381    
     86500  -64296.412      322.57961     -63973.832      188.32345      185.43621      767.67176    
     86600  -64289.972      307.36891     -63982.603      188.34531      185.45494      767.93971    
     86700  -64349.034      395.41908     -63953.615      188.36553      185.46869      768.20766    
     86800  -64389.182      380.50444     -64008.677      188.376        185.47968      768.47561    
     86900  -64484.766      369.08916     -64115.677      188.39907      185.49887      768.74355    
     87000  -64521.999      325.92366     -64196.075      188.42096      185.52273      769.0115     
     87100  -64543.438      316.68816     -64226.75       188.4432       185.54086      769.27945    
     87200  -64540.953      327.18939     -64213.764      188.45831      185.55886      769.5474     
     87300  -64537.942      357.70839     -64180.233      188.47636      185.57619      769.81535    
     87400  -64534.074      361.92615     -64172.148      188.49489      185.59347      770.08329    
     87500  -64559.799      357.69141     -64202.108      188.51957      185.61763      770.35124    
     87600  -64581.481      332.73808     -64248.743      188.53329      185.63321      770.61919    
     87700  -64602.099      331.02063     -64271.079      188.55401      185.64996      770.88714    
     87800  -64613.572      345.59958     -64267.973      188.57807      185.66781      771.15509    
     87900  -64613.069      349.76698     -64263.302      188.59575      185.68535      771.42304    
     88000  -64637.5        355.82452     -64281.676      188.6147       185.71211      771.69098    
     88100  -64661.31       340.20514     -64321.105      188.62894      185.73721      771.95893    
     88200  -64679.282      325.62105     -64353.661      188.64601      185.76691      772.22688    
     88300  -64685.688      330.37154     -64355.317      188.66014      185.79415      772.49483    
     88400  -64684.319      348.69385     -64335.625      188.67431      185.82207      772.76278    
     88500  -64693.267      362.79472     -64330.473      188.68925      185.84745      773.03073    
     88600  -64717.826      355.44673     -64362.379      188.70993      185.87426      773.29867    
     88700  -64739.532      333.8958      -64405.636      188.73273      185.90044      773.56662    
     88800  -64758.242      328.7863      -64429.456      188.75656      185.93038      773.83457    
     88900  -64762.518      334.25266     -64428.265      188.77796      185.95494      774.10252    
     89000  -64765.58       352.71254     -64412.868      188.80098      185.97867      774.37047    
     89100  -64773.997      360.24047     -64413.757      188.82437      186.00558      774.63842    
     89200  -64800.176      351.07486     -64449.101      188.84347      186.03053      774.90636    
     89300  -64819.261      331.8109      -64487.45       188.85993      186.05633      775.17431    
     89400  -64828.919      329.15475     -64499.765      188.87808      186.07955      775.44226    
     89500  -64843.489      355.98831     -64487.5        188.89703      186.10191      775.71021    
     89600  -64846.314      353.21265     -64493.101      188.91823      186.1222       775.97816    
     89700  -64865.877      342.81541     -64523.061      188.93188      186.13472      776.2461     
     89800  -64883.744      331.95984     -64551.784      188.94893      186.14834      776.51405    
     89900  -64891.191      331.57573     -64559.615      188.96614      186.15842      776.782      
     90000  -64891.688      344.59372     -64547.095      188.98297      186.16422      777.04995    
     90100  -64893.597      357.16457     -64536.432      189.00203      186.16894      777.3179     
     90200  -64901.481      350.86436     -64550.617      189.01616      186.16879      777.58585    
     90300  -64919.996      338.34595     -64581.65       189.03687      186.17527      777.85379    
     90400  -64933.585      331.46108     -64602.123      189.05159      186.18012      778.12174    
     90500  -64926.201      329.20763     -64596.994      189.06424      186.18788      778.38969    
     90600  -64914.512      344.43666     -64570.076      189.07345      186.19924      778.65764    
     90700  -64905.173      358.20735     -64546.965      189.08517      186.21513      778.92559    
     90800  -64896.723      349.26813     -64547.455      189.09348      186.23501      779.19354    
     90900  -64890.633      333.50571     -64557.127      189.10197      186.25835      779.46148    
     91000  -64882.158      332.52978     -64549.628      189.10746      186.28015      779.72943    
     91100  -64869.675      344.22189     -64525.453      189.11476      186.30517      779.99738    
     91200  -64854.791      350.72506     -64504.066      189.11898      186.32781      780.26533    
     91300  -64838.953      342.74077     -64496.212      189.12608      186.35305      780.53328    
     91400  -64823.763      335.75974     -64488.003      189.13059      186.37555      780.80123    
     91500  -64811.079      342.54995     -64468.529      189.13773      186.39597      781.06917    
     91600  -64804.023      356.34991     -64447.673      189.14814      186.41475      781.33712    
     91700  -64802.747      354.72721     -64448.019      189.16203      186.43539      781.60507    
     91800  -64808.279      336.90205     -64471.377      189.17652      186.45057      781.87302    
     91900  -64831.411      339.74146     -64491.669      189.19756      186.46751      782.14097    
     92000  -64838.972      337.10442     -64501.868      189.21572      186.47815      782.40891    
     92100  -64840.487      342.02633     -64498.461      189.23667      186.48807      782.67686    
     92200  -64846.247      351.67839     -64494.569      189.25593      186.49569      782.94481    
     92300  -64854.529      350.45782     -64504.071      189.28063      186.5024       783.21276    
     92400  -64865.438      339.67885     -64525.759      189.30135      186.5039       783.48071    
     92500  -64876.972      336.99319     -64539.979      189.32714      186.50532      783.74866    
     92600  -64888.49       344.09554     -64544.394      189.3529       186.50695      784.0166     
     92700  -64901.986      349.11197     -64552.874      189.38017      186.50878      784.28455    
     92800  -64914.325      345.06923     -64569.256      189.40354      186.5086       784.5525     
     92900  -64920.908      335.53986     -64585.368      189.42643      186.51078      784.82045    
     93000  -64931.837      341.13371     -64590.703      189.44426      186.51545      785.0884     
     93100  -64935.754      344.51841     -64591.236      189.46363      186.5252       785.35635    
     93200  -64933.873      340.08614     -64593.787      189.47646      186.53845      785.62429    
     93300  -64935.281      339.92227     -64595.358      189.48671      186.55619      785.89224    
     93400  -64929.566      336.51316     -64593.053      189.4926       186.57653      786.16019    
     93500  -64915.565      336.03978     -64579.525      189.49943      186.60099      786.42814    
     93600  -64906.81       349.38325     -64557.426      189.50381      186.62587      786.69609    
     93700  -64882.161      343.45435     -64538.706      189.50678      186.65102      786.96404    
     93800  -64863.337      342.13771     -64521.2        189.51161      186.67731      787.23198    
     93900  -64845.459      343.1244      -64502.334      189.517        186.70028      787.49993    
     94000  -64825.847      341.92192     -64483.925      189.52749      186.72455      787.76788    
     94100  -64808.035      342.33191     -64465.703      189.5349       186.74218      788.03583    
     94200  -64791.47       347.10315     -64444.367      189.54845      186.76358      788.30378    
     94300  -64776.672      348.70245     -64427.969      189.56321      186.77852      788.57172    
     94400  -64766.421      341.93036     -64424.491      189.5846       186.79011      788.83967    
     94500  -64765.702      340.14742     -64425.554      189.60827      186.79639      789.10762    
     94600  -64762.376      339.91858     -64422.458      189.63522      186.80336      789.37557    
     94700  -64763.5        344.13581     -64419.365      189.6653       186.80776      789.64352    
     94800  -64774.174      349.07225     -64425.101      189.69687      186.80937      789.91147    
     94900  -64787.183      344.93425     -64442.249      189.7279       186.80919      790.17941    
     95000  -64797.964      338.19141     -64459.773      189.7604       186.8086       790.44736    
     95100  -64808.291      340.32965     -64467.961      189.79818      186.80787      790.71531    
     95200  -64813.535      342.56438     -64470.971      189.83318      186.80367      790.98326    
     95300  -64822.345      346.78327     -64475.562      189.86794      186.80563      791.25121    
     95400  -64830.768      344.65536     -64486.112      189.89538      186.80743      791.51916    
     95500  -64844.074      341.7796      -64502.294      189.92196      186.81516      791.7871     
     95600  -64859.175      340.43461     -64518.74       189.94424      186.82321      792.05505    
     95700  -64869.247      337.07694     -64532.17       189.9647       186.83708      792.323      
     95800  -64877.827      340.23036     -64537.597      189.97943      186.84887      792.59095    
     95900  -64875.475      339.88428     -64535.59       189.99082      186.86578      792.8589     
     96000  -64872.795      344.19791     -64528.597      189.99482      186.88216      793.12685    
     96100  -64872.313      349.51203     -64522.801      189.99703      186.90129      793.39479    
     96200  -64873.019      345.04718     -64527.972      189.99295      186.91661      793.66274    
     96300  -64870.639      334.56569     -64536.073      189.98873      186.93576      793.93069    
     96400  -64870.7        337.73287     -64532.967      189.98337      186.95101      794.19864    
     96500  -64863.054      344.10664     -64518.947      189.97878      186.96699      794.46659    
     96600  -64846.928      344.85856     -64502.07       189.97251      186.97804      794.73453    
     96700  -64837.416      347.63478     -64489.781      189.97248      186.98793      795.00248    
     96800  -64832.808      348.27372     -64484.534      189.97617      186.99363      795.27043    
     96900  -64838.079      345.13312     -64492.945      189.98745      186.99859      795.53838    
     97000  -64845.146      336.53915     -64508.607      190.0009       186.99348      795.80633    
     97100  -64841.585      330.14362     -64511.441      190.02208      186.98473      796.07428    
     97200  -64835.626      343.79268     -64491.833      190.04765      186.97002      796.34222    
     97300  -64823.565      351.16207     -64472.403      190.07829      186.95339      796.61017    
     97400  -64829.564      354.0735      -64475.491      190.10931      186.93182      796.87812    
     97500  -64843.249      340.68045     -64502.568      190.14337      186.91317      797.14607    
     97600  -64865.129      335.70206     -64529.427      190.17948      186.89375      797.41402    
     97700  -64875.455      336.37941     -64539.076      190.21748      186.878        797.68197    
     97800  -64875.406      342.43079     -64532.975      190.2521       186.864        797.94991    
     97900  -64878.2        351.33991     -64526.86       190.28282      186.85486      798.21786    
     98000  -64885.411      349.39542     -64536.016      190.30761      186.85079      798.48581    
     98100  -64895.22       338.52053     -64556.7        190.32955      186.85467      798.75376    
     98200  -64907.863      336.39938     -64571.464      190.34501      186.86406      799.02171    
     98300  -64911.192      339.58474     -64571.607      190.35712      186.87922      799.28966    
     98400  -64909.265      345.09862     -64564.166      190.36415      186.89932      799.5576     
     98500  -64912.405      350.48471     -64561.92       190.3689       186.92436      799.82555    
     98600  -64919.025      344.12782     -64574.898      190.36753      186.95139      800.0935     
     98700  -64923.006      331.84861     -64591.158      190.36436      186.9789       800.36145    
     98800  -64920.4        331.01708     -64589.383      190.35916      187.00567      800.6294     
     98900  -64908.307      339.85732     -64568.45       190.35655      187.03063      800.89734    
     99000  -64896.861      352.19278     -64544.668      190.35514      187.0506       801.16529    
     99100  -64886.002      350.52706     -64535.475      190.35837      187.06577      801.43324    
     99200  -64881.063      341.57795     -64539.485      190.36438      187.07395      801.70119    
     99300  -64880.399      336.89504     -64543.504      190.37847      187.07657      801.96914    
     99400  -64868.871      333.85798     -64535.013      190.39879      187.07089      802.23709    
     99500  -64857.309      343.56944     -64513.74       190.42558      187.06182      802.50503    
     99600  -64838.304      345.07102     -64493.233      190.45318      187.0436       802.77298    
     99700  -64825.841      344.74183     -64481.099      190.48627      187.02447      803.04093    
     99800  -64818.439      342.89336     -64475.546      190.51977      187.00077      803.30888    
     99900  -64810.349      340.42448     -64469.924      190.55619      186.9781       803.57683    
    100000  -64801.717      341.48097     -64460.236      190.58931      186.9538       803.84478    
Loop time of 12974.3 on 12 procs for 100000 steps with 8840 atoms

Performance: 0.666 ns/day, 36.040 hours/ns, 7.708 timesteps/s, 68.134 katom-step/s
57.7% CPU use with 12 MPI tasks x 1 OpenMP threads

MPI task timing breakdown:
Section |  min time  |  avg time  |  max time  |%varavg| %total
---------------------------------------------------------------
Pair    | 1476.9     | 1764.1     | 2005.3     | 353.9 | 13.60
Neigh   | 5.7143     | 7.9821     | 11.401     |  62.3 |  0.06
Comm    | 1739.3     | 2011.1     | 2325.3     | 388.9 | 15.50
Output  | 33.152     | 34.085     | 34.96      |  10.8 |  0.26
Modify  | 7994.8     | 8185.1     | 8342       |  95.3 | 63.09
Other   |            | 971.9      |            |       |  7.49

Nlocal:        736.667 ave        1225 max         355 min
Histogram: 2 2 0 4 0 0 0 1 1 2
Nghost:        2505.33 ave        3961 max        1412 min
Histogram: 4 0 0 4 0 0 0 0 0 4
Neighs:              0 ave           0 max           0 min
Histogram: 12 0 0 0 0 0 0 0 0 0

Total # of neighbors = 0
Ave neighs/atom = 0
Neighbor list builds = 571
Dangerous builds = 0
Total wall time: 3:36:18
