LAMMPS (2 Aug 2023 - Update 3)
OMP_NUM_THREADS environment is not set. Defaulting to 1 thread. (src/comm.cpp:98)
  using 1 OpenMP thread(s) per MPI task

# 1------general---------------
units                             metal      #单位为lammps 中的metel 类型
dimension                    3          #模拟的维度 三维
boundary                    p p p      #周期边界条件
atom_style                  atomic   #原子类型自动
atom_modify              map array sort 100 2.0
neighbor                    3.0 bin
neigh_modify            every 1 delay 0 check yes
#2 -----global variable-------定义全局变量，方便统一修改；
variable temperature equal 300
variable tstep equal 0.001
variable pressure equal 0
variable thermalstep equal 100
variable dumpstep equal 1000
variable relaxtime equal 0
variable totaltime equal 100000
variable deformrate equal 5e-3
#3 -------model------------
#box tilt large
read_data     1.lmp
Reading data file ...
  orthogonal box = (-100 -100 -2.3312511) to (100 100 38.891558)
  4 by 4 by 1 MPI processor grid
  reading atoms ...
  784 atoms
  read_data CPU = 0.896 seconds
group SR type 2
240 atoms in group SR
delete_atoms group SR
Deleted 240 atoms, new total = 544

replicate 1 1 17
Replication is creating a 1x1x17 = 17 times larger system...
  orthogonal box = (-100 -100 -2.3312511) to (100 100 698.45651)
  2 by 2 by 4 MPI processor grid
  9248 atoms
  replicate CPU = 1.060 seconds
write_data l.data
System init for write_data ...
WARNING: Communication cutoff is 0.0. No ghost atoms will be generated. Atoms may get lost. (src/comm_brick.cpp:210)

pair_style hybrid airebo 3.0 airebo 3.0  lj/cut 10
pair_coeff * * airebo 1 CH.airebo C NULL
Reading airebo potential file CH.airebo with DATE: 2011-10-25
pair_coeff * * airebo 2 CH.airebo NULL C
Reading airebo potential file CH.airebo with DATE: 2011-10-25
pair_coeff 1 2 lj/cut 0.00456 3.431

# 5------minimize -----------
min_style      sd
minimize       1.0e-4 1.0e-6 100 1000
Neighbor list info ...
  update: every = 1 steps, delay = 0 steps, check = yes
  max neighbors/atom: 2000, page size: 100000
  master list distance cutoff = 13.2
  ghost atom cutoff = 13.2
  binsize = 6.6, bins = 31 31 107
  5 neighbor lists, perpetual/occasional/extra = 5 0 0
  (1) pair airebo, perpetual, skip from (4)
      attributes: full, newton on, ghost
      pair build: skip/ghost
      stencil: none
      bin: none
  (2) pair airebo, perpetual, skip from (4)
      attributes: full, newton on, ghost
      pair build: skip/ghost
      stencil: none
      bin: none
  (3) pair lj/cut, perpetual, skip from (5)
      attributes: half, newton on, cut 13
      pair build: skip
      stencil: none
      bin: none
  (4) neighbor class addition, perpetual
      attributes: full, newton on, ghost
      pair build: full/bin/ghost
      stencil: full/ghost/bin/3d
      bin: standard
  (5) neighbor class addition, perpetual
      attributes: half, newton on, cut 13
      pair build: half/bin/atomonly/newton
      stencil: half/bin/3d
      bin: standard
Per MPI rank memory allocation (min/avg/max) = 10.22 | 10.22 | 10.22 Mbytes
   Step          Temp          E_pair         E_mol          TotEng         Press     
         0   0             -68293.851      0             -68293.851      30.842369    
         1   0             -68294.603      0             -68294.603      30.157447    
Loop time of 1.0095 on 16 procs for 1 steps with 9248 atoms

43.4% CPU use with 16 MPI tasks x 1 OpenMP threads

Minimization stats:
  Stopping criterion = energy tolerance
  Energy initial, next-to-last, final = 
     -68293.8514048221  -68293.8514048221  -68294.6027335698
  Force two-norm initial, final = 14.342313 3.0760077
  Force max component initial, final = 0.14888908 0.031904291
  Final line search alpha, max atom move = 0.67164094 0.021428228
  Iterations, force evaluations = 1 2

MPI task timing breakdown:
Section |  min time  |  avg time  |  max time  |%varavg| %total
---------------------------------------------------------------
Pair    | 0.021135   | 0.033884   | 0.084741   |   8.8 |  3.36
Neigh   | 0          | 0          | 0          |   0.0 |  0.00
Comm    | 0.095301   | 0.23919    | 0.32743    |  12.7 | 23.69
Output  | 0          | 0          | 0          |   0.0 |  0.00
Modify  | 0          | 0          | 0          |   0.0 |  0.00
Other   |            | 0.7364     |            |       | 72.95

Nlocal:            578 ave         653 max         504 min
Histogram: 4 0 0 0 4 4 0 0 0 4
Nghost:           2078 ave        2152 max        2003 min
Histogram: 4 0 0 0 4 4 0 0 0 4
Neighs:              0 ave           0 max           0 min
Histogram: 16 0 0 0 0 0 0 0 0 0

Total # of neighbors = 0
Ave neighs/atom = 0
Neighbor list builds = 0
Dangerous builds = 0
#6----define computes------
variable nums equal count(all) #计算原子数目
variable toval equal 13.369*13.369*lz #计算系统总体积，单层石墨烯厚度为0.335nm
variable vol equal ${toval} #体系的初始体积
variable vol equal 125251.908589577 
variable vatom equal v_vol/v_nums #单个原子体积
compute 1 all stress/atom NULL #计算体系中单原子应力
compute xalls all reduce sum c_1[1]
variable xstress equal (c_xalls)/(v_toval*10000)
compute yalls all reduce sum c_1[2]
variable ystress equal (c_yalls)/(v_toval*10000)
compute zalls all reduce sum c_1[3]
variable zstress equal (c_zalls)/(v_toval*10000)
#7---------relaxation-------------------------
timestep ${tstep}
timestep 0.001
#------------5 温度初始化------------------------------
velocity all create 300 4928459 dist gaussian units box
#------------------------------------------------------
dump   1 all atom 100 all-cy.lammpstrj
#fix    1 all npt temp 300 300  0.1 aniso 0 0  drag 1  #三个方向独立控压
fix  s all npt temp ${temperature} ${temperature} 0.1 y ${pressure} ${pressure} 10 x ${pressure} ${pressure} 10
fix  s all npt temp 300 ${temperature} 0.1 y ${pressure} ${pressure} 10 x ${pressure} ${pressure} 10
fix  s all npt temp 300 300 0.1 y ${pressure} ${pressure} 10 x ${pressure} ${pressure} 10
fix  s all npt temp 300 300 0.1 y 0 ${pressure} 10 x ${pressure} ${pressure} 10
fix  s all npt temp 300 300 0.1 y 0 0 10 x ${pressure} ${pressure} 10
fix  s all npt temp 300 300 0.1 y 0 0 10 x 0 ${pressure} 10
fix  s all npt temp 300 300 0.1 y 0 0 10 x 0 0 10
thermo                1000
thermo_modify       lost ignore
compute  2 all pe/atom
compute  pe all reduce sum c_2
variable PE equal "c_pe"
fix    pe all print 100 "${PE} " file PE.txt screen no
thermo  ${thermalstep}
thermo  100
#thermo_style  custom step pe ke etotal lx ly lz
run   ${relaxtime}
run   0
Per MPI rank memory allocation (min/avg/max) = 10.85 | 10.94 | 11.23 Mbytes
   Step          Temp          E_pair         E_mol          TotEng         Press          Volume    
         1   300           -68294.603      0             -67936.022      43.820865      28031510     
Loop time of 0.0477418 on 16 procs for 0 steps with 9248 atoms

39.8% CPU use with 16 MPI tasks x 1 OpenMP threads

MPI task timing breakdown:
Section |  min time  |  avg time  |  max time  |%varavg| %total
---------------------------------------------------------------
Pair    | 0          | 0          | 0          |   0.0 |  0.00
Neigh   | 0          | 0          | 0          |   0.0 |  0.00
Comm    | 0          | 0          | 0          |   0.0 |  0.00
Output  | 0          | 0          | 0          |   0.0 |  0.00
Modify  | 0          | 0          | 0          |   0.0 |  0.00
Other   |            | 0.04774    |            |       |100.00

Nlocal:            578 ave         580 max         576 min
Histogram: 8 0 0 0 0 0 0 0 0 8
Nghost:           2078 ave        2080 max        2076 min
Histogram: 8 0 0 0 0 0 0 0 0 8
Neighs:              0 ave           0 max           0 min
Histogram: 16 0 0 0 0 0 0 0 0 0

Total # of neighbors = 0
Ave neighs/atom = 0
Neighbor list builds = 0
Dangerous builds = 0
#8 -------tension-----------------------------
unfix s
undump  1
unfix  pe
reset_timestep 0
fix avestress all ave/atom 1 ${dumpstep} ${dumpstep} c_1[1] c_1[2] c_1[3] c_1[4] c_1[5] c_1[6]
fix avestress all ave/atom 1 1000 ${dumpstep} c_1[1] c_1[2] c_1[3] c_1[4] c_1[5] c_1[6]
fix avestress all ave/atom 1 1000 1000 c_1[1] c_1[2] c_1[3] c_1[4] c_1[5] c_1[6]

#-----calculation of strain and Cumulative compression--------
variable                tmp equal "lz"
variable                L0 equal ${tmp}
variable                L0 equal 700.7877567434
variable                strain equal "(lz - v_L0)/v_L0"
variable                Cumulativels equal "(lz - v_L0)/10"
fix Step all print 100 "${strain} ${Cumulativels} ${zstress}" file grapoten.txt screen no

dump 2 all custom ${dumpstep} tension.xyz type x y z f_avestress[1] f_avestress[2] f_avestress[3] f_avestress[4] f_avestress[5] f_avestress[6]
dump 2 all custom 1000 tension.xyz type x y z f_avestress[1] f_avestress[2] f_avestress[3] f_avestress[4] f_avestress[5] f_avestress[6]

fix  1 all npt temp ${temperature} ${temperature} 0.1 y ${pressure} ${pressure} 10 x ${pressure} ${pressure} 10
fix  1 all npt temp 300 ${temperature} 0.1 y ${pressure} ${pressure} 10 x ${pressure} ${pressure} 10
fix  1 all npt temp 300 300 0.1 y ${pressure} ${pressure} 10 x ${pressure} ${pressure} 10
fix  1 all npt temp 300 300 0.1 y 0 ${pressure} 10 x ${pressure} ${pressure} 10
fix  1 all npt temp 300 300 0.1 y 0 0 10 x ${pressure} ${pressure} 10
fix  1 all npt temp 300 300 0.1 y 0 0 10 x 0 ${pressure} 10
fix  1 all npt temp 300 300 0.1 y 0 0 10 x 0 0 10

thermo_style custom step pe ke etotal lx ly lz
WARNING: New thermo_style command, previous thermo_modify settings will be lost (src/output.cpp:903)
fix   2 all deform 1 z erate ${deformrate} remap x units box
fix   2 all deform 1 z erate 0.005 remap x units box
fix   3 all ave/time 2 500 1000 v_xstress v_ystress v_zstress file pressure.out
run   ${totaltime}
run   100000
WARNING: Dump 2 includes no atom IDs and is not sorted by ID. This may complicate post-processing tasks or visualization (src/dump.cpp:221)
Per MPI rank memory allocation (min/avg/max) = 12.35 | 12.44 | 12.73 Mbytes
   Step         PotEng         KinEng         TotEng           Lx             Ly             Lz      
         0  -68294.603      358.58057     -67936.022      200            200            700.78776    
       100  -68092.165      182.57937     -67909.586      200.00555      200.00691      701.13815    
       200  -68087.372      214.45167     -67872.92       200.00258      200.00593      701.48854    
       300  -68061.859      232.85084     -67829.008      199.99716      200.00193      701.83894    
       400  -68040.776      259.77279     -67781.003      200.00391      200.01015      702.18933    
       500  -68016.335      286.01        -67730.325      199.99677      200.0041       702.53973    
       600  -67997.269      317.95736     -67679.312      199.99668      200.00429      702.89012    
       700  -67960.104      328.63728     -67631.467      200.00158      200.00947      703.24051    
       800  -67948.475      358.14397     -67590.331      199.99278      200.00041      703.59091    
       900  -67931.429      369.44902     -67561.98       199.99769      200.0049       703.9413     
      1000  -67921.155      366.14327     -67555.011      199.99672      200.0039       704.2917     
      1100  -67930.181      362.36892     -67567.812      199.99056      199.9974       704.64209    
      1200  -67935.49       350.42158     -67585.069      199.99558      200.00198      704.99248    
      1300  -67938.967      347.98895     -67590.979      199.99017      199.99701      705.34288    
      1400  -67937.546      358.03278     -67579.513      199.98805      199.99519      705.69327    
      1500  -67925.609      362.94955     -67562.659      199.98904      199.99755      706.04366    
      1600  -67919.567      365.77846     -67553.788      199.98157      199.99247      706.39406    
      1700  -67922.387      364.46957     -67557.917      199.98115      199.99458      706.74445    
      1800  -67926.085      356.51049     -67569.574      199.97634      199.99252      707.09485    
      1900  -67930.056      355.23832     -67574.818      199.97101      199.99019      707.44524    
      2000  -67916.647      349.54128     -67567.105      199.96934      199.99098      707.79563    
      2100  -67912.542      359.95784     -67552.584      199.96294      199.98673      708.14603    
      2200  -67906.624      364.37602     -67542.248      199.96062      199.98595      708.49642    
      2300  -67907.553      363.8511      -67543.702      199.95624      199.98189      708.84682    
      2400  -67910.015      357.64525     -67552.369      199.95236      199.97786      709.19721    
      2500  -67906.826      349.2292      -67557.597      199.95031      199.97483      709.5476     
      2600  -67907.878      355.11013     -67552.768      199.94433      199.96792      709.898      
      2700  -67902.948      362.35796     -67540.59       199.94304      199.96556      710.24839    
      2800  -67889.209      360.77895     -67528.43       199.9376       199.95911      710.59879    
      2900  -67888.386      363.87905     -67524.506      199.93289      199.954        710.94918    
      3000  -67888.936      358.6937      -67530.243      199.92995      199.95103      711.29957    
      3100  -67892.501      356.31945     -67536.182      199.92176      199.94366      711.64997    
      3200  -67889.34       355.20704     -67534.133      199.91791      199.94159      712.00036    
      3300  -67879.804      356.39736     -67523.407      199.9105       199.93647      712.35075    
      3400  -67870.11       359.32617     -67510.783      199.90248      199.93162      712.70115    
      3500  -67865.237      361.85581     -67503.381      199.897        199.92961      713.05154    
      3600  -67867.851      362.42269     -67505.428      199.88674      199.92285      713.40194    
      3700  -67870.59       360.52127     -67510.069      199.88066      199.92042      713.75233    
      3800  -67861.269      351.67951     -67509.589      199.87194      199.91463      714.10272    
      3900  -67857.144      356.17581     -67500.969      199.86372      199.90838      714.45312    
      4000  -67848.801      361.15453     -67487.646      199.85798      199.90411      714.80351    
      4100  -67841.127      362.57725     -67478.55       199.84784      199.89464      715.15391    
      4200  -67841.351      363.23952     -67478.111      199.84255      199.88954      715.5043     
      4300  -67839.805      357.5486      -67482.257      199.83383      199.8806       715.85469    
      4400  -67835.004      352.56062     -67482.443      199.82508      199.87193      716.20509    
      4500  -67829.217      354.67999     -67474.537      199.81956      199.86572      716.55548    
      4600  -67820.502      359.50208     -67461          199.80821      199.85426      716.90588    
      4700  -67813.024      363.08149     -67449.943      199.80155      199.8481       717.25627    
      4800  -67812.144      364.6529      -67447.492      199.79148      199.83903      717.60666    
      4900  -67806.405      356.21542     -67450.19       199.78005      199.82912      717.95706    
      5000  -67807.448      356.05179     -67451.396      199.77224      199.82363      718.30745    
      5100  -67800.561      355.2908      -67445.27       199.75828      199.81199      718.65784    
      5200  -67789.358      356.1175      -67433.241      199.74884      199.80518      719.00824    
      5300  -67782.54       362.08659     -67420.453      199.73743      199.79704      719.35863    
      5400  -67778.842      365.35712     -67413.485      199.72326      199.78563      719.70903    
      5500  -67771.697      357.1143      -67414.583      199.71441      199.77895      720.05942    
      5600  -67768.473      353.01519     -67415.458      199.70039      199.76694      720.40981    
      5700  -67764.912      354.10537     -67410.807      199.68915      199.75664      720.76021    
      5800  -67751.959      352.92052     -67399.038      199.67862      199.74639      721.1106     
      5900  -67746.39       361.12326     -67385.267      199.66493      199.73288      721.461      
      6000  -67737.162      360.55826     -67376.603      199.65473      199.72239      721.81139    
      6100  -67731.261      356.48454     -67374.777      199.64127      199.7085       722.16178    
      6200  -67729.56       354.91026     -67374.65       199.62856      199.69613      722.51218    
      6300  -67726.174      356.11405     -67370.06       199.61574      199.6835       722.86257    
      6400  -67718.274      358.52657     -67359.747      199.60092      199.66912      723.21296    
      6500  -67705.741      358.64209     -67347.099      199.58751      199.65715      723.56336    
      6600  -67697.263      359.67019     -67337.593      199.57124      199.64264      723.91375    
      6700  -67692.847      358.97214     -67333.875      199.55595      199.62929      724.26415    
      6800  -67689.222      356.21019     -67333.012      199.5399       199.61538      724.61454    
      6900  -67686.019      356.54926     -67329.469      199.52243      199.60027      724.96493    
      7000  -67679.055      359.86774     -67319.187      199.50664      199.58627      725.31533    
      7100  -67666.214      360.63885     -67305.575      199.48911      199.57002      725.66572    
      7200  -67658.188      362.78369     -67295.404      199.47267      199.55449      726.01612    
      7300  -67651.792      360.44235     -67291.349      199.45587      199.53749      726.36651    
      7400  -67646.972      357.30067     -67289.671      199.43885      199.51946      726.7169     
      7500  -67640.385      355.58021     -67284.804      199.42248      199.50212      727.0673     
      7600  -67632.404      357.53152     -67274.873      199.40464      199.48288      727.41769    
      7700  -67621.253      359.96957     -67261.284      199.38809      199.46458      727.76809    
      7800  -67608          358.74094     -67249.259      199.36961      199.44549      728.11848    
      7900  -67604.655      362.96017     -67241.695      199.3507       199.42643      728.46887    
      8000  -67597.324      359.14796     -67238.176      199.33208      199.40799      728.81927    
      8100  -67593.709      359.76397     -67233.945      199.31087      199.3879       729.16966    
      8200  -67574.742      350.08419     -67224.658      199.29092      199.36972      729.52005    
      8300  -67573.443      362.66543     -67210.777      199.26868      199.34905      729.87045    
      8400  -67560.523      362.71493     -67197.808      199.24685      199.32908      730.22084    
      8500  -67550.796      361.34678     -67189.449      199.22481      199.30888      730.57124    
      8600  -67545.83       361.44643     -67184.383      199.20066      199.28609      730.92163    
      8700  -67535.056      355.75256     -67179.304      199.17862      199.26491      731.27202    
      8800  -67523.327      352.63953     -67170.687      199.15412      199.241        731.62242    
      8900  -67515.432      356.81065     -67158.622      199.13017      199.21667      731.97281    
      9000  -67506.048      360.15504     -67145.893      199.10675      199.19238      732.32321    
      9100  -67495.47       359.04738     -67136.423      199.08087      199.16568      732.6736     
      9200  -67493.84       363.21324     -67130.627      199.05684      199.14028      733.02399    
      9300  -67478.759      353.40105     -67125.357      199.03074      199.11235      733.37439    
      9400  -67471.361      354.24516     -67117.116      199.00497      199.08527      733.72478    
      9500  -67464.272      358.98812     -67105.284      198.97822      199.05781      734.07518    
      9600  -67457.085      365.67451     -67091.411      198.95044      199.02957      734.42557    
      9700  -67441.235      361.33928     -67079.896      198.92246      199.00221      734.77596    
      9800  -67433.906      361.77887     -67072.127      198.89248      198.9738       735.12636    
      9900  -67425.521      359.3401      -67066.181      198.86321      198.94622      735.47675    
     10000  -67418.648      359.20266     -67059.445      198.83208      198.9176       735.82714    
     10100  -67406.818      357.55354     -67049.264      198.80064      198.88923      736.17754    
     10200  -67396.158      361.84652     -67034.311      198.76937      198.86101      736.52793    
     10300  -67378.198      358.6088      -67019.59       198.73632      198.83049      736.87833    
     10400  -67371.31       362.73213     -67008.578      198.70494      198.80163      737.22872    
     10500  -67363.779      359.34526     -67004.433      198.67172      198.76998      737.57911    
     10600  -67354.184      356.0497      -66998.135      198.63918      198.73828      737.92951    
     10700  -67341.502      356.19537     -66985.307      198.60718      198.70666      738.2799     
     10800  -67331.149      360.43621     -66970.713      198.57308      198.67227      738.6303     
     10900  -67317.794      360.04944     -66957.744      198.54107      198.64002      738.98069    
     11000  -67303.812      356.64838     -66947.163      198.50653      198.60513      739.33108    
     11100  -67293.233      356.04831     -66937.185      198.47232      198.57064      739.68148    
     11200  -67285.647      358.25897     -66927.388      198.43844      198.5368       740.03187    
     11300  -67277.246      361.32211     -66915.923      198.40165      198.50057      740.38226    
     11400  -67265.076      361.22484     -66903.851      198.36703      198.46668      740.73266    
     11500  -67251.527      361.62036     -66889.907      198.33002      198.43102      741.08305    
     11600  -67239.343      362.41668     -66876.927      198.29236      198.39534      741.43345    
     11700  -67227.788      358.71289     -66869.076      198.25556      198.36122      741.78384    
     11800  -67216.79       355.4903      -66861.3        198.21542      198.32415      742.13423    
     11900  -67203.847      353.93146     -66849.916      198.17756      198.28985      742.48463    
     12000  -67188.679      358.17598     -66830.503      198.13745      198.25339      742.83502    
     12100  -67176.52       361.8998      -66814.621      198.0969       198.21618      743.18542    
     12200  -67168.669      363.35286     -66805.316      198.05827      198.18045      743.53581    
     12300  -67156.252      358.06687     -66798.185      198.01665      198.14062      743.8862     
     12400  -67142.245      354.4829      -66787.762      197.97747      198.10291      744.2366     
     12500  -67129.841      355.60818     -66774.233      197.93731      198.06353      744.58699    
     12600  -67124.768      364.63375     -66760.134      197.89617      198.02291      744.93739    
     12700  -67104.33       357.76662     -66746.563      197.85672      197.98384      745.28778    
     12800  -67094.997      361.06653     -66733.931      197.81483      197.94252      745.63817    
     12900  -67080.28       354.85187     -66725.428      197.77418      197.90255      745.98857    
     13000  -67068.603      352.41022     -66716.192      197.73272      197.86242      746.33896    
     13100  -67062.196      360.76234     -66701.434      197.68996      197.82149      746.68935    
     13200  -67042.242      359.45331     -66682.789      197.64838      197.78264      747.03975    
     13300  -67029.641      362.13681     -66667.504      197.6048       197.74233      747.39014    
     13400  -67018.213      360.89817     -66657.315      197.56173      197.70291      747.74054    
     13500  -67006.39       353.88522     -66652.505      197.51861      197.66372      748.09093    
     13600  -66992.871      352.89307     -66639.978      197.4745       197.62349      748.44132    
     13700  -66976.09       353.71856     -66622.372      197.43166      197.58436      748.79172    
     13800  -66962.972      358.73814     -66604.234      197.3882       197.54406      749.14211    
     13900  -66950.152      362.1105      -66588.042      197.34531      197.50347      749.49251    
     14000  -66932.158      357.5731      -66574.585      197.30312      197.46279      749.8429     
     14100  -66922.841      354.73095     -66568.11       197.26042      197.42111      750.19329    
     14200  -66915.945      357.96696     -66557.978      197.21858      197.37978      750.54369    
     14300  -66896.544      356.61229     -66539.932      197.17653      197.33802      750.89408    
     14400  -66883.673      361.66836     -66522.005      197.13513      197.29666      751.24448    
     14500  -66866.719      358.55843     -66508.161      197.09324      197.25513      751.59487    
     14600  -66854.303      357.98783     -66496.315      197.05188      197.21419      751.94526    
     14700  -66845.903      359.51442     -66486.389      197.0107       197.17353      752.29566    
     14800  -66828.072      347.96751     -66480.105      196.96901      197.13321      752.64605    
     14900  -66817.088      352.50071     -66464.587      196.92846      197.09439      752.99644    
     15000  -66802.056      356.96782     -66445.088      196.88708      197.05477      753.34684    
     15100  -66784.227      356.64247     -66427.585      196.84705      197.0167       753.69723    
     15200  -66772.735      363.15748     -66409.578      196.80689      196.979        754.04763    
     15300  -66755.164      361.39986     -66393.764      196.76682      196.94116      754.39802    
     15400  -66743.355      362.04624     -66381.309      196.72834      196.90452      754.74841    
     15500  -66727.56       354.32941     -66373.231      196.68935      196.86706      755.09881    
     15600  -66717.451      357.76192     -66359.689      196.65184      196.8308       755.4492     
     15700  -66697.769      359.39142     -66338.378      196.61446      196.7937       755.7996     
     15800  -66675.468      355.63719     -66319.83       196.57803      196.75713      756.14999    
     15900  -66663.279      358.98371     -66304.295      196.5424       196.72096      756.50038    
     16000  -66652.341      361.36484     -66290.976      196.50657      196.68424      756.85078    
     16100  -66637.57       356.94203     -66280.628      196.47211      196.64861      757.20117    
     16200  -66626.364      356.25694     -66270.107      196.43692      196.61288      757.55157    
     16300  -66604.629      352.90956     -66251.719      196.40274      196.57834      757.90196    
     16400  -66589.423      360.93834     -66228.484      196.36852      196.54398      758.25235    
     16500  -66572.024      359.9924      -66212.032      196.33444      196.51016      758.60275    
     16600  -66559.89       360.69718     -66199.193      196.30148      196.47821      758.95314    
     16700  -66548.685      359.38        -66189.305      196.26705      196.44503      759.30353    
     16800  -66533.136      357.75321     -66175.382      196.235        196.41449      759.65393    
     16900  -66513.709      360.3948      -66153.314      196.20232      196.38346      760.00432    
     17000  -66494.958      363.3406      -66131.617      196.17034      196.3529       760.35472    
     17100  -66478.549      360.10426     -66118.444      196.1403       196.32394      760.70511    
     17200  -66466.289      358.40968     -66107.879      196.10907      196.29328      761.0555     
     17300  -66452.655      357.71022     -66094.944      196.08032      196.26492      761.4059     
     17400  -66434.275      357.14985     -66077.125      196.05141      196.23617      761.75629    
     17500  -66409.595      357.11064     -66052.484      196.02327      196.20757      762.10669    
     17600  -66398.89       363.32793     -66035.562      195.99641      196.18004      762.45708    
     17700  -66386.961      363.48008     -66023.481      195.96935      196.15279      762.80747    
     17800  -66368.948      357.53511     -66011.413      195.94278      196.12637      763.15787    
     17900  -66350.859      354.95595     -65995.903      195.91741      196.10079      763.50826    
     18000  -66334.79       356.90897     -65977.881      195.8919       196.07555      763.85865    
     18100  -66316.209      361.47166     -65954.737      195.86708      196.05144      764.20905    
     18200  -66296.006      361.48632     -65934.519      195.84258      196.02831      764.55944    
     18300  -66283.093      359.93072     -65923.162      195.81803      196.00534      764.90984    
     18400  -66271.033      359.65823     -65911.375      195.79457      195.98394      765.26023    
     18500  -66255.795      360.74361     -65895.052      195.77083      195.96247      765.61062    
     18600  -66234.642      358.46454     -65876.177      195.74797      195.94169      765.96102    
     18700  -66213.723      360.98879     -65852.735      195.72579      195.92165      766.31141    
     18800  -66197.645      365.59938     -65832.046      195.70319      195.90095      766.66181    
     18900  -66179.374      358.06182     -65821.312      195.68262      195.88157      767.0122     
     19000  -66162.931      352.18066     -65810.751      195.66172      195.86086      767.36259    
     19100  -66144.213      352.69092     -65791.522      195.6416       195.84072      767.71299    
     19200  -66130.147      360.88788     -65769.259      195.62277      195.82145      768.06338    
     19300  -66109.279      359.6033      -65749.676      195.60282      195.80087      768.41378    
     19400  -66093.917      359.34138     -65734.576      195.58462      195.78223      768.76417    
     19500  -66079.905      354.69323     -65725.212      195.56506      195.76298      769.11456    
     19600  -66065.145      357.14384     -65708.002      195.54661      195.74507      769.46496    
     19700  -66042.79       356.25159     -65686.539      195.52803      195.72747      769.81535    
     19800  -66027.244      360.79024     -65666.454      195.50925      195.71024      770.16574    
     19900  -66005.411      357.08392     -65648.327      195.49103      195.69444      770.51614    
     20000  -65989.023      358.29676     -65630.727      195.47227      195.67816      770.86653    
     20100  -65971.328      357.88242     -65613.446      195.45445      195.66311      771.21693    
     20200  -65950.96       355.38677     -65595.574      195.43602      195.64783      771.56732    
     20300  -65936.411      359.86065     -65576.551      195.41802      195.63277      771.91771    
     20400  -65917.289      359.9994      -65557.289      195.40108      195.61787      772.26811    
     20500  -65901.864      362.9687      -65538.895      195.38359      195.60201      772.6185     
     20600  -65881.174      360.41421     -65520.76       195.36736      195.58689      772.9689     
     20700  -65857.447      356.71072     -65500.736      195.35096      195.57049      773.31929    
     20800  -65839.702      363.05983     -65476.642      195.33513      195.5544       773.66968    
     20900  -65821.913      366.20507     -65455.708      195.31953      195.5382       774.02008    
     21000  -65804.86       360.14008     -65444.72       195.30373      195.52128      774.37047    
     21100  -65787.97       357.10367     -65430.867      195.28906      195.50512      774.72087    
     21200  -65774.441      361.86594     -65412.575      195.27368      195.48874      775.07126    
     21300  -65752.418      360.04145     -65392.377      195.25797      195.47262      775.42165    
     21400  -65728.763      359.2782      -65369.485      195.24339      195.45791      775.77205    
     21500  -65711.012      363.89375     -65347.119      195.2273       195.44208      776.12244    
     21600  -65694.268      361.30895     -65332.959      195.21232      195.4282       776.47283    
     21700  -65681.549      360.31825     -65321.231      195.19676      195.414        776.82323    
     21800  -65660.078      357.56556     -65302.513      195.18078      195.39954      777.17362    
     21900  -65633.9        354.53953     -65279.361      195.16652      195.38689      777.52402    
     22000  -65614.236      358.92677     -65255.309      195.15032      195.37205      777.87441    
     22100  -65596.849      361.04303     -65235.806      195.13655      195.35904      778.2248     
     22200  -65575.462      357.06311     -65218.398      195.12149      195.34432      778.5752     
     22300  -65557.333      356.49981     -65200.833      195.10723      195.32959      778.92559    
     22400  -65539.889      357.46984     -65182.419      195.09403      195.3153       779.27599    
     22500  -65519.892      359.96148     -65159.931      195.07911      195.29878      779.62638    
     22600  -65494.932      361.33413     -65133.598      195.06685      195.28451      779.97677    
     22700  -65480.666      364.48221     -65116.184      195.05212      195.26783      780.32717    
     22800  -65459.452      356.22066     -65103.231      195.03875      195.25248      780.67756    
     22900  -65438.883      353.0156      -65085.867      195.02516      195.23679      781.02795    
     23000  -65422.493      356.94447     -65065.549      195.01035      195.22057      781.37835    
     23100  -65404.103      363.06975     -65041.033      194.99706      195.20627      781.72874    
     23200  -65379.518      364.97751     -65014.54       194.98131      195.18998      782.07914    
     23300  -65359.375      361.99083     -64997.385      194.96734      195.17621      782.42953    
     23400  -65339.321      357.52163     -64981.799      194.95149      195.16121      782.77992    
     23500  -65323.061      358.45178     -64964.61       194.93569      195.1465       783.13032    
     23600  -65303.067      357.30646     -64945.76       194.92098      195.13294      783.48071    
     23700  -65284.05       359.43457     -64924.616      194.90423      195.11724      783.83111    
     23800  -65262.63       363.11684     -64899.514      194.88992      195.10381      784.1815     
     23900  -65237.97       361.00012     -64876.97       194.87393      195.08822      784.53189    
     24000  -65223.298      360.93878     -64862.359      194.85942      195.07352      784.88229    
     24100  -65202.478      355.10617     -64847.372      194.8447       195.05815      785.23268    
     24200  -65184.974      357.85849     -64827.115      194.83024      195.04248      785.58308    
     24300  -65161.087      356.6638      -64804.423      194.81677      195.02748      785.93347    
     24400  -65137.555      359.0679      -64778.487      194.80221      195.01117      786.28386    
     24500  -65120.108      367.32466     -64752.783      194.78925      194.99679      786.63426    
     24600  -65098.343      360.06164     -64738.282      194.77484      194.98113      786.98465    
     24700  -65080.157      354.87459     -64725.283      194.76106      194.96656      787.33504    
     24800  -65059.848      355.60482     -64704.243      194.747        194.95249      787.68544    
     24900  -65036.421      357.64414     -64678.777      194.73191      194.93787      788.03583    
     25000  -65010.239      356.44668     -64653.792      194.71772      194.92458      788.38623    
     25100  -64991.761      359.91376     -64631.847      194.70205      194.91027      788.73662    
     25200  -64970.562      356.52815     -64614.033      194.68697      194.89714      789.08701    
     25300  -64957.031      355.89112     -64601.14       194.67096      194.88316      789.43741    
     25400  -64933.863      354.78908     -64579.074      194.65565      194.8694       789.7878     
     25500  -64915.112      362.25681     -64552.855      194.6401       194.85526      790.1382     
     25600  -64888.704      359.28931     -64529.415      194.62442      194.84086      790.48859    
     25700  -64867.336      358.54108     -64508.795      194.60918      194.82616      790.83898    
     25800  -64846.563      357.41212     -64489.151      194.59422      194.81102      791.18938    
     25900  -64825.65       353.19675     -64472.453      194.57924      194.79572      791.53977    
     26000  -64809.933      351.62813     -64458.304      194.56445      194.78099      791.89017    
     26100  -64786.4        353.41826     -64432.981      194.54924      194.76582      792.24056    
     26200  -64765.569      359.12199     -64406.447      194.5345       194.75105      792.59095    
     26300  -64739.471      357.66128     -64381.81       194.51928      194.73604      792.94135    
     26400  -64716.662      359.86144     -64356.801      194.50328      194.72084      793.29174    
     26500  -64692.524      359.65932     -64332.865      194.488        194.70665      793.64213    
     26600  -64672.768      361.73251     -64311.036      194.47144      194.69116      793.99253    
     26700  -64648.368      353.72188     -64294.646      194.45514      194.67645      794.34292    
     26800  -64637.825      361.07818     -64276.747      194.43831      194.66155      794.69332    
     26900  -64608.758      356.42642     -64252.332      194.42081      194.64576      795.04371    
     27000  -64583.971      359.72253     -64224.248      194.40419      194.63068      795.3941     
     27100  -64565.365      363.67968     -64201.686      194.38578      194.61412      795.7445     
     27200  -64540.214      357.7464      -64182.467      194.36876      194.59864      796.09489    
     27300  -64523.686      359.99333     -64163.693      194.35067      194.58155      796.44529    
     27400  -64500.083      356.47614     -64143.607      194.33338      194.56488      796.79568    
     27500  -64479.552      359.01205     -64120.539      194.31601      194.54852      797.14607    
     27600  -64453.557      363.16855     -64090.388      194.29779      194.53068      797.49647    
     27700  -64428.665      361.14715     -64067.518      194.28189      194.51436      797.84686    
     27800  -64411.529      359.83193     -64051.697      194.26358      194.49579      798.19725    
     27900  -64393.935      359.78364     -64034.151      194.24732      194.47895      798.54765    
     28000  -64366.107      354.7519      -64011.355      194.23039      194.46071      798.89804    
     28100  -64342.836      358.88069     -63983.955      194.21331      194.44233      799.24844    
     28200  -64312.862      356.96504     -63955.897      194.19671      194.42494      799.59883    
     28300  -64293.164      358.66313     -63934.501      194.17837      194.40589      799.94922    
     28400  -64271.123      355.90711     -63915.216      194.1615       194.38849      800.29962    
     28500  -64254.263      359.26273     -63895.001      194.14263      194.3692       800.65001    
     28600  -64229.684      354.87954     -63874.804      194.12468      194.35123      801.00041    
     28700  -64209.278      354.92752     -63854.35       194.10562      194.33257      801.3508     
     28800  -64184.73       356.55404     -63828.176      194.08612      194.31356      801.70119    
     28900  -64158.211      358.16093     -63800.05       194.06748      194.29538      802.05159    
     29000  -64135.24       359.28658     -63775.954      194.04716      194.27562      802.40198    
     29100  -64115.747      359.5797      -63756.167      194.02806      194.25675      802.75238    
     29200  -64096.457      354.57287     -63741.884      194.00812      194.23675      803.10277    
     29300  -64071.995      352.05865     -63719.937      193.98849      194.21631      803.45316    
     29400  -64044.336      351.68965     -63692.646      193.96924      194.19607      803.80356    
     29500  -64026.879      360.77864     -63666.1        193.94933      194.17467      804.15395    
     29600  -63998.211      356.9782      -63641.232      193.93005      194.15377      804.50434    
     29700  -63979.445      362.58318     -63616.862      193.91016      194.13216      804.85474    
     29800  -63954.614      360.10542     -63594.509      193.89025      194.1105       805.20513    
     29900  -63933.628      357.0384      -63576.59       193.87036      194.08913      805.55553    
     30000  -63911.607      355.11536     -63556.492      193.84959      194.06723      805.90592    
     30100  -63887.273      356.13969     -63531.133      193.82938      194.04636      806.25631    
     30200  -63864.415      363.19072     -63501.225      193.80816      194.02492      806.60671    
     30300  -63837.961      360.29638     -63477.664      193.78737      194.00435      806.9571     
     30400  -63811.825      354.35351     -63457.472      193.76607      193.98387      807.3075     
     30500  -63795.513      359.65139     -63435.862      193.74453      193.96316      807.65789    
     30600  -63770.272      357.04787     -63413.224      193.72375      193.94331      808.00828    
     30700  -63745.798      356.76587     -63389.032      193.702        193.92259      808.35868    
     30800  -63716.824      352.4624      -63364.362      193.68073      193.90263      808.70907    
     30900  -63699.359      359.60074     -63339.758      193.65937      193.88258      809.05947    
     31000  -63672.234      357.2538      -63314.98       193.63751      193.86144      809.40986    
     31100  -63650.22       359.10692     -63291.113      193.61699      193.84136      809.76025    
     31200  -63629.001      361.36834     -63267.633      193.59457      193.81914      810.11065    
     31300  -63599.722      355.62408     -63244.098      193.57412      193.79842      810.46104    
     31400  -63579.237      360.74393     -63218.493      193.55221      193.77591      810.81143    
     31500  -63554.704      365.7793      -63188.924      193.53093      193.75391      811.16183    
     31600  -63528.859      364.85041     -63164.008      193.51023      193.73256      811.51222    
     31700  -63510.335      362.1399      -63148.195      193.48753      193.70924      811.86262    
     31800  -63488.067      360.76775     -63127.299      193.46716      193.68861      812.21301    
     31900  -63461.755      358.33474     -63103.42       193.44409      193.66554      812.5634     
     32000  -63435.146      357.77405     -63077.372      193.42263      193.64481      812.9138     
     32100  -63409.16       361.74521     -63047.415      193.39994      193.62347      813.26419    
     32200  -63381.542      359.56943     -63021.972      193.37706      193.60206      813.61459    
     32300  -63365.029      359.28461     -63005.744      193.35469      193.58145      813.96498    
     32400  -63339.723      353.70224     -62986.021      193.33056      193.55951      814.31537    
     32500  -63313.551      355.53418     -62958.017      193.30837      193.53919      814.66577    
     32600  -63286.851      357.68312     -62929.167      193.28378      193.51674      815.01616    
     32700  -63260.679      358.66331     -62902.016      193.26067      193.49548      815.36655    
     32800  -63240.026      362.60998     -62877.416      193.23639      193.47274      815.71695    
     32900  -63216.481      357.05186     -62859.429      193.21273      193.45019      816.06734    
     33000  -63195.529      353.98798     -62841.541      193.18876      193.42677      816.41774    
     33100  -63171.093      357.24866     -62813.844      193.16484      193.40324      816.76813    
     33200  -63136.676      351.80796     -62784.868      193.14094      193.37934      817.11852    
     33300  -63117.407      359.03291     -62758.374      193.11738      193.35533      817.46892    
     33400  -63096.172      361.2899      -62734.882      193.09334      193.3309       817.81931    
     33500  -63072.373      358.17805     -62714.195      193.06983      193.3069       818.16971    
     33600  -63053.622      355.20603     -62698.416      193.04576      193.28263      818.5201     
     33700  -63026.466      352.24833     -62674.218      193.02186      193.25871      818.87049    
     33800  -62996.222      351.87274     -62644.349      192.99829      193.2348       819.22089    
     33900  -62972.047      356.96383     -62615.083      192.97404      193.21028      819.57128    
     34000  -62946.094      360.29159     -62585.803      192.9502       193.18661      819.92168    
     34100  -62920.025      361.28535     -62558.739      192.92568      193.16225      820.27207    
     34200  -62897.963      363.17125     -62534.792      192.90139      193.13807      820.62246    
     34300  -62871.648      355.22251     -62516.425      192.87661      193.11359      820.97286    
     34400  -62854.59       359.06928     -62495.521      192.85179      193.08917      821.32325    
     34500  -62823.419      357.77452     -62465.645      192.82656      193.06432      821.67364    
     34600  -62798.538      362.19296     -62436.345      192.80183      193.04009      822.02404    
     34700  -62765.984      355.0793      -62410.904      192.77618      193.0145       822.37443    
     34800  -62744.928      358.81359     -62386.115      192.75166      192.98976      822.72483    
     34900  -62720.866      358.22699     -62362.639      192.72572      192.9636       823.07522    
     35000  -62698.372      357.6798      -62340.692      192.70083      192.93819      823.42561    
     35100  -62677.131      360.12404     -62317.006      192.67541      192.91189      823.77601    
     35200  -62643.419      356.98224     -62286.436      192.65022      192.88539      824.1264     
     35300  -62616.429      359.57248     -62256.857      192.62566      192.85936      824.4768     
     35400  -62592.526      359.52095     -62233.005      192.59958      192.83194      824.82719    
     35500  -62569.479      356.85986     -62212.619      192.57484      192.80592      825.17758    
     35600  -62549.966      357.93307     -62192.033      192.54866      192.7782       825.52798    
     35700  -62524.698      351.32579     -62173.372      192.52378      192.75203      825.87837    
     35800  -62501.287      351.37777     -62149.909      192.4974       192.72476      826.22877    
     35900  -62473.464      356.88063     -62116.583      192.47229      192.69869      826.57916    
     36000  -62443.619      356.41996     -62087.199      192.44635      192.67227      826.92955    
     36100  -62416.577      357.22702     -62059.35       192.42062      192.6464       827.27995    
     36200  -62396.597      361.67967     -62034.918      192.39471      192.62097      827.63034    
     36300  -62372.803      359.18491     -62013.619      192.36896      192.59574      827.98073    
     36400  -62347.437      354.31596     -61993.121      192.34354      192.57075      828.33113    
     36500  -62320.447      354.92399     -61965.523      192.31775      192.54577      828.68152    
     36600  -62296.3        364.2805      -61932.019      192.29248      192.52156      829.03192    
     36700  -62262.652      357.30283     -61905.349      192.26672      192.49673      829.38231    
     36800  -62237.679      357.8134      -61879.866      192.2415       192.47223      829.7327     
     36900  -62211.93       358.37144     -61853.559      192.21609      192.44724      830.0831     
     37000  -62190.673      364.18687     -61826.487      192.19096      192.42269      830.43349    
     37100  -62158.025      356.9558      -61801.07       192.1654       192.39768      830.78389    
     37200  -62140.069      360.97184     -61779.097      192.14042      192.3729       831.13428    
     37300  -62116.103      357.79374     -61758.31       192.11549      192.34757      831.48467    
     37400  -62087.751      354.49754     -61733.253      192.09085      192.32269      831.83507    
     37500  -62062.757      362.92249     -61699.834      192.06609      192.29779      832.18546    
     37600  -62025.834      354.37198     -61671.462      192.04135      192.27286      832.53586    
     37700  -62006.588      358.51101     -61648.077      192.01717      192.24855      832.88625    
     37800  -61988.6        361.50642     -61627.093      191.99234      192.2238       833.23664    
     37900  -61959.675      354.97665     -61604.698      191.96834      192.20033      833.58704    
     38000  -61934.174      359.12529     -61575.049      191.94318      192.17638      833.93743    
     38100  -61899.855      357.73624     -61542.119      191.91877      192.15332      834.28782    
     38200  -61875.666      360.78183     -61514.885      191.89359      192.12951      834.63822    
     38300  -61851.026      360.68478     -61490.341      191.86871      192.10623      834.98861    
     38400  -61825.834      357.71821     -61468.116      191.84361      192.08287      835.33901    
     38500  -61799.144      352.15359     -61446.99       191.81817      192.05901      835.6894     
     38600  -61773.808      354.63521     -61419.173      191.79311      192.03541      836.03979    
     38700  -61742.312      357.17806     -61385.134      191.76765      192.01124      836.39019    
     38800  -61717.791      359.40589     -61358.385      191.74272      191.98757      836.74058    
     38900  -61695.326      359.53185     -61335.794      191.71684      191.96294      837.09098    
     39000  -61674.536      359.18713     -61315.349      191.69252      191.93936      837.44137    
     39100  -61648.558      357.01324     -61291.545      191.6671       191.91449      837.79176    
     39200  -61616.623      357.44986     -61259.173      191.64318      191.89085      838.14216    
     39300  -61588.64       361.34703     -61227.293      191.61877      191.8662       838.49255    
     39400  -61563.882      360.38862     -61203.493      191.59488      191.84224      838.84294    
     39500  -61541.676      358.62404     -61183.052      191.57156      191.8185       839.19334    
     39600  -61517.085      358.48577     -61158.6        191.54765      191.7938       839.54373    
     39700  -61485.928      357.67441     -61128.253      191.52498      191.77046      839.89413    
     39800  -61455.629      360.79872     -61094.831      191.50131      191.74576      840.24452    
     39900  -61429.182      359.2522      -61069.929      191.47869      191.72226      840.59491    
     40000  -61404.596      357.14124     -61047.455      191.45535      191.69765      840.94531    
     40100  -61379.931      355.75027     -61024.181      191.4325       191.67373      841.2957     
     40200  -61355.768      355.94305     -60999.825      191.40937      191.64973      841.6461     
     40300  -61325.433      355.14035     -60970.293      191.38613      191.62564      841.99649    
     40400  -61301.075      363.31355     -60937.761      191.36309      191.60199      842.34688    
     40500  -61271.467      359.9985      -60911.468      191.33983      191.57816      842.69728    
     40600  -61246.375      355.94366     -60890.431      191.31607      191.55434      843.04767    
     40700  -61228.518      360.97113     -60867.547      191.29269      191.53096      843.39807    
     40800  -61194.422      356.34495     -60838.077      191.26913      191.50743      843.74846    
     40900  -61166.391      363.71778     -60802.674      191.24547      191.48407      844.09885    
     41000  -61136.113      358.34934     -60777.763      191.2218       191.46083      844.44925    
     41100  -61115.094      358.35842     -60756.735      191.19808      191.4374       844.79964    
     41200  -61087.813      354.31767     -60733.496      191.17475      191.41397      845.15003    
     41300  -61063.989      357.13789     -60706.851      191.15136      191.39013      845.50043    
     41400  -61035.318      362.85139     -60672.467      191.12849      191.36687      845.85082    
     41500  -61005.404      362.12101     -60643.283      191.10571      191.34308      846.20122    
     41600  -60983.277      361.41626     -60621.861      191.08312      191.31945      846.55161    
     41700  -60960.852      360.90279     -60599.949      191.0612       191.29605      846.902      
     41800  -60931.489      356.66022     -60574.829      191.03958      191.27298      847.2524     
     41900  -60907.774      360.32719     -60547.447      191.01778      191.2499       847.60279    
     42000  -60876.155      360.88889     -60515.266      190.99693      191.22791      847.95319    
     42100  -60847.19       363.76485     -60483.426      190.97553      191.20539      848.30358    
     42200  -60822.038      361.42162     -60460.617      190.95493      191.18433      848.65397    
     42300  -60793.648      355.37464     -60438.274      190.93342      191.16239      849.00437    
     42400  -60769.67       357.60973     -60412.06       190.91292      191.14193      849.35476    
     42500  -60741.491      357.61019     -60383.881      190.89133      191.1208       849.70516    
     42600  -60709.912      357.22578     -60352.686      190.87016      191.10049      850.05555    
     42700  -60685.248      365.81797     -60319.43       190.84912      191.08068      850.40594    
     42800  -60659.502      363.20929     -60296.293      190.82711      191.06021      850.75634    
     42900  -60634.507      357.62195     -60276.885      190.80656      191.0412       851.10673    
     43000  -60608.59       357.35168     -60251.239      190.78427      191.02053      851.45712    
     43100  -60582.866      358.5413      -60224.325      190.76433      191.0022       851.80752    
     43200  -60558.847      363.09272     -60195.755      190.74229      190.98161      852.15791    
     43300  -60528.115      361.91253     -60166.202      190.723        190.96368      852.50831    
     43400  -60498.351      359.60481     -60138.746      190.70219      190.94348      852.8587     
     43500  -60471.364      353.67619     -60117.687      190.68273      190.92453      853.20909    
     43600  -60450.5        356.41857     -60094.081      190.66384      190.90571      853.55949    
     43700  -60423.551      358.97827     -60064.573      190.64404      190.88555      853.90988    
     43800  -60392.081      362.50812     -60029.573      190.6264       190.8674       854.26028    
     43900  -60360.636      358.93272     -60001.703      190.60632      190.84661      854.61067    
     44000  -60335.367      357.482       -59977.885      190.5887       190.82858      854.96106    
     44100  -60309.666      355.42956     -59954.237      190.56874      190.8083       855.31146    
     44200  -60282.563      356.5959      -59925.967      190.55024      190.78967      855.66185    
     44300  -60252.475      361.9128      -59890.562      190.53069      190.77038      856.01224    
     44400  -60219.849      357.83328     -59862.016      190.51098      190.75088      856.36264    
     44500  -60195.468      355.16653     -59840.302      190.49162      190.73233      856.71303    
     44600  -60175.095      358.59387     -59816.501      190.47088      190.71302      857.06343    
     44700  -60145.302      354.72389     -59790.578      190.45172      190.6957       857.41382    
     44800  -60121.254      356.95887     -59764.295      190.43065      190.67663      857.76421    
     44900  -60097.642      358.86132     -59738.78       190.41173      190.65978      858.11461    
     45000  -60068.679      354.65994     -59714.019      190.39126      190.64123      858.465      
     45100  -60038.635      353.82985     -59684.805      190.37264      190.62415      858.8154     
     45200  -60011.597      360.4456      -59651.152      190.35349      190.60609      859.16579    
     45300  -59985.964      363.99263     -59621.971      190.33428      190.58779      859.51618    
     45400  -59955.939      358.20152     -59597.738      190.31682      190.57035      859.86658    
     45500  -59933.462      355.77905     -59577.683      190.29787      190.55073      860.21697    
     45600  -59905.976      355.4308      -59550.545      190.28198      190.53325      860.56737    
     45700  -59875.582      355.76967     -59519.813      190.26316      190.51241      860.91776    
     45800  -59845.481      357.51908     -59487.962      190.24746      190.49472      861.26815    
     45900  -59819.007      359.80606     -59459.201      190.22923      190.47426      861.61855    
     46000  -59796.039      361.07388     -59434.965      190.21292      190.45613      861.96894    
     46100  -59770.689      355.10602     -59415.583      190.19478      190.43639      862.31933    
     46200  -59742.701      355.57344     -59387.127      190.17739      190.41787      862.66973    
     46300  -59713.691      358.78496     -59354.907      190.15998      190.39957      863.02012    
     46400  -59682.558      358.52465     -59324.033      190.14108      190.38024      863.37052    
     46500  -59660.855      366.05974     -59294.795      190.12402      190.36304      863.72091    
     46600  -59627.406      359.49855     -59267.908      190.10413      190.34346      864.0713     
     46700  -59601.763      354.58325     -59247.18       190.08736      190.32679      864.4217     
     46800  -59579.305      356.97689     -59222.328      190.06726      190.30725      864.77209    
     46900  -59546.1        356.38044     -59189.72       190.0498       190.29005      865.12249    
     47000  -59521.147      363.15181     -59157.995      190.03074      190.27125      865.47288    
     47100  -59494.886      363.657       -59131.229      190.01277      190.25324      865.82327    
     47200  -59464.367      358.25889     -59106.108      189.99488      190.23536      866.17367    
     47300  -59439.764      359.14764     -59080.616      189.97642      190.21671      866.52406    
     47400  -59411.626      358.20307     -59053.423      189.95992      190.19974      866.87446    
     47500  -59386.936      361.32286     -59025.613      189.94196      190.18087      867.22485    
     47600  -59356.789      358.40381     -58998.385      189.92628      190.16438      867.57524    
     47700  -59328.395      357.29438     -58971.101      189.9087       190.1457       867.92564    
     47800  -59303.131      361.26545     -58941.866      189.8936       190.12983      868.27603    
     47900  -59270.496      359.57679     -58910.919      189.87634      190.11178      868.62642    
     48000  -59241.483      360.65817     -58880.825      189.86094      190.09565      868.97682    
     48100  -59212.598      356.71436     -58855.883      189.84445      190.07829      869.32721    
     48200  -59191.787      357.62991     -58834.157      189.82841      190.06171      869.67761    
     48300  -59160.518      354.54564     -58805.972      189.81248      190.04556      870.028      
     48400  -59133.882      359.44643     -58774.436      189.79535      190.02862      870.37839    
     48500  -59104.433      361.85098     -58742.582      189.77994      190.01345      870.72879    
     48600  -59069.739      363.19377     -58706.545      189.76211      189.99615      871.07918    
     48700  -59043.567      362.21463     -58681.352      189.74677      189.98163      871.42958    
     48800  -59018.4        357.32672     -58661.073      189.72913      189.96526      871.77997    
     48900  -58997.047      358.87788     -58638.169      189.713        189.95094      872.13036    
     49000  -58969.077      355.97489     -58613.102      189.69592      189.9359       872.48076    
     49100  -58944.332      360.23364     -58584.098      189.67964      189.92143      872.83115    
     49200  -58912.944      361.35589     -58551.588      189.66313      189.90676      873.18154    
     49300  -58876.74       358.3769      -58518.363      189.64685      189.89203      873.53194    
     49400  -58850.001      358.73197     -58491.269      189.63101      189.87781      873.88233    
     49500  -58826.678      354.74669     -58471.931      189.61424      189.86254      874.23273    
     49600  -58799.433      355.06561     -58444.367      189.59902      189.84815      874.58312    
     49700  -58776.447      364.28773     -58412.16       189.58234      189.83194      874.93351    
     49800  -58739.856      359.88341     -58379.973      189.567        189.81682      875.28391    
     49900  -58713.923      362.51947     -58351.404      189.55058      189.80041      875.6343     
     50000  -58686.945      355.30728     -58331.638      189.53473      189.7845       875.9847     
     50100  -58661.583      355.89191     -58305.692      189.51891      189.76828      876.33509    
     50200  -58634.472      358.30447     -58276.167      189.50263      189.75149      876.68548    
     50300  -58605.257      360.30345     -58244.954      189.48725      189.73568      877.03588    
     50400  -58573.295      360.31191     -58212.983      189.47083      189.71907      877.38627    
     50500  -58548.984      361.16354     -58187.821      189.45518      189.70356      877.73667    
     50600  -58522.404      356.41859     -58165.986      189.43912      189.68749      878.08706    
     50700  -58496.125      357.58316     -58138.542      189.42309      189.67199      878.43745    
     50800  -58465.313      357.02352     -58108.289      189.40706      189.65677      878.78785    
     50900  -58439.335      365.17697     -58074.158      189.39049      189.64118      879.13824    
     51000  -58402.865      361.60587     -58041.259      189.3747       189.62641      879.48863    
     51100  -58380.653      360.60369     -58020.049      189.35836      189.61091      879.83903    
     51200  -58355.899      360.77219     -57995.127      189.34269      189.59564      880.18942    
     51300  -58323.821      356.66111     -57967.16       189.32652      189.57959      880.53982    
     51400  -58298.522      360.83242     -57937.69       189.31077      189.5637       880.89021    
     51500  -58267.826      358.42201     -57909.404      189.29514      189.5479       881.2406     
     51600  -58241.167      356.72631     -57884.44       189.27915      189.5312       881.591      
     51700  -58215.547      356.70297     -57858.844      189.26378      189.5148       881.94139    
     51800  -58186.367      357.47711     -57828.89       189.24826      189.49759      882.29179    
     51900  -58151.557      358.99738     -57792.56       189.23296      189.48083      882.64218    
     52000  -58124.142      363.26569     -57760.877      189.21686      189.46322      882.99257    
     52100  -58099.276      362.25104     -57737.025      189.20176      189.44643      883.34297    
     52200  -58067.791      355.82548     -57711.965      189.18542      189.42866      883.69336    
     52300  -58043.18       358.34473     -57684.835      189.1699       189.41181      884.04376    
     52400  -58014.054      355.27175     -57658.783      189.15349      189.39416      884.39415    
     52500  -57986.319      353.11934     -57633.199      189.13716      189.37705      884.74454    
     52600  -57964.599      358.10102     -57606.498      189.12092      189.35991      885.09494    
     52700  -57938.208      358.05633     -57580.152      189.10409      189.34267      885.44533    
     52800  -57906.755      357.73336     -57549.022      189.0876       189.32599      885.79572    
     52900  -57877.409      363.58377     -57513.825      189.07083      189.30927      886.14612    
     53000  -57847.18       363.45638     -57483.724      189.05425      189.29286      886.49651    
     53100  -57817.55       356.44026     -57461.11       189.03793      189.27699      886.84691    
     53200  -57795.634      361.04165     -57434.593      189.02175      189.26088      887.1973     
     53300  -57763.126      358.39498     -57404.731      189.00601      189.24522      887.54769    
     53400  -57735.867      360.29113     -57375.576      188.98952      189.22918      887.89809    
     53500  -57705.186      356.14698     -57349.039      188.97402      189.21415      888.24848    
     53600  -57680.102      355.21419     -57324.887      188.95748      189.19792      888.59888    
     53700  -57649.811      355.19181     -57294.619      188.94209      189.18294      888.94927    
     53800  -57620.817      363.88361     -57256.934      188.9256       189.16652      889.29966    
     53900  -57588.707      363.47166     -57225.235      188.91018      189.15142      889.65006    
     54000  -57563.554      364.58229     -57198.972      188.89371      189.13477      890.00045    
     54100  -57534.805      361.04227     -57173.763      188.87856      189.11957      890.35084    
     54200  -57504.16       356.35492     -57147.805      188.86231      189.10296      890.70124    
     54300  -57478.963      358.21525     -57120.747      188.84695      189.08726      891.05163    
     54400  -57453.22       359.0623      -57094.158      188.83148      189.07153      891.40203    
     54500  -57429.539      363.63922     -57065.9        188.81544      189.05542      891.75242    
     54600  -57395.895      357.99333     -57037.901      188.80052      189.04058      892.10281    
     54700  -57367.217      356.52412     -57010.693      188.78441      189.02484      892.45321    
     54800  -57333.838      354.11081     -56979.727      188.76892      189.00981      892.8036     
     54900  -57307.028      362.4738      -56944.554      188.75295      188.9948       893.154      
     55000  -57275.647      362.98945     -56912.658      188.73694      188.97955      893.50439    
     55100  -57245.705      356.5963      -56889.108      188.72107      188.96427      893.85478    
     55200  -57223.209      360.20877     -56863          188.70513      188.94896      894.20518    
     55300  -57190.333      357.50258     -56832.831      188.68824      188.93305      894.55557    
     55400  -57160.461      359.08135     -56801.38       188.67196      188.91789      894.90597    
     55500  -57130.269      357.27122     -56772.997      188.6545       188.90154      895.25636    
     55600  -57104.414      354.56806     -56749.846      188.6382       188.88621      895.60675    
     55700  -57078.764      357.69211     -56721.072      188.62053      188.86965      895.95715    
     55800  -57049.623      360.0447      -56689.578      188.60392      188.85433      896.30754    
     55900  -57020.057      361.16861     -56658.888      188.58619      188.83769      896.65793    
     56000  -56993.123      359.67407     -56633.449      188.56999      188.82223      897.00833    
     56100  -56966.195      358.21346     -56607.982      188.5526       188.80544      897.35872    
     56200  -56931.052      353.66554     -56577.387      188.53647      188.78988      897.70912    
     56300  -56903.495      359.74651     -56543.748      188.51963      188.77305      898.05951    
     56400  -56869.493      360.06489     -56509.428      188.50336      188.75654      898.4099     
     56500  -56841.599      360.79564     -56480.803      188.48738      188.74018      898.7603     
     56600  -56816.568      358.75359     -56457.814      188.47014      188.72237      899.11069    
     56700  -56785.822      356.32339     -56429.498      188.45583      188.70696      899.46109    
     56800  -56763.303      361.46592     -56401.837      188.43777      188.68762      899.81148    
     56900  -56735.494      362.0671      -56373.426      188.42356      188.67221      900.16187    
     57000  -56703.253      355.3249      -56347.928      188.40535      188.65296      900.51227    
     57100  -56680.213      358.87234     -56321.34       188.39037      188.6368       900.86266    
     57200  -56646.297      358.42639     -56287.871      188.37274      188.61801      901.21306    
     57300  -56612.713      364.56386     -56248.149      188.35628      188.60084      901.56345    
     57400  -56579.464      361.44846     -56218.016      188.33918      188.58347      901.91384    
     57500  -56553.281      360.00826     -56193.273      188.32112      188.56545      902.26424    
     57600  -56524.492      358.94932     -56165.543      188.30414      188.54868      902.61463    
     57700  -56493.075      355.74601     -56137.329      188.28547      188.53012      902.96502    
     57800  -56468.666      358.61749     -56110.048      188.26862      188.51365      903.31542    
     57900  -56441.183      359.63759     -56081.545      188.24904      188.49474      903.66581    
     58000  -56413.981      357.5666      -56056.415      188.23191      188.47773      904.01621    
     58100  -56385.374      355.41622     -56029.958      188.21336      188.45908      904.3666     
     58200  -56353.763      357.81943     -55995.943      188.19511      188.44069      904.71699    
     58300  -56318.28       357.52564     -55960.755      188.17801      188.42318      905.06739    
     58400  -56292.105      360.92025     -55931.185      188.15881      188.40344      905.41778    
     58500  -56267.971      360.42234     -55907.549      188.14297      188.38717      905.76818    
     58600  -56233.368      356.45552     -55876.912      188.12373      188.36729      906.11857    
     58700  -56204.05       358.44758     -55845.603      188.10808      188.35104      906.46896    
     58800  -56175.873      357.30719     -55818.566      188.08996      188.33193      906.81936    
     58900  -56148.991      358.00578     -55790.985      188.0735       188.31452      907.16975    
     59000  -56117.24       358.38842     -55758.852      188.05593      188.2959       907.52014    
     59100  -56089.012      363.26107     -55725.751      188.03936      188.27828      907.87054    
     59200  -56052.195      358.26855     -55693.927      188.022        188.25982      908.22093    
     59300  -56020.262      355.92705     -55664.335      188.00484      188.24155      908.57133    
     59400  -56000.671      363.6843      -55636.987      187.98784      188.22392      908.92172    
     59500  -55963.911      355.59439     -55608.316      187.96957      188.20554      909.27211    
     59600  -55939.899      362.89823     -55577.001      187.95254      188.18855      909.62251    
     59700  -55904.808      358.59545     -55546.212      187.93414      188.17008      909.9729     
     59800  -55874.155      357.5918      -55516.563      187.91681      188.15334      910.3233     
     59900  -55849.815      364.0407      -55485.774      187.89814      188.13563      910.67369    
     60000  -55816.041      360.00285     -55456.038      187.88034      188.11888      911.02408    
     60100  -55788.9        361.70326     -55427.197      187.86274      188.10218      911.37448    
     60200  -55755.131      357.95734     -55397.173      187.84399      188.08461      911.72487    
     60300  -55725.233      359.35369     -55365.88       187.8266       188.06886      912.07527    
     60400  -55691.85       357.3126      -55334.538      187.80744      188.05112      912.42566    
     60500  -55665.19       362.54022     -55302.65       187.78959      188.03461      912.77605    
     60600  -55631.579      360.32275     -55271.256      187.7709       188.01753      913.12645    
     60700  -55608.23       366.88885     -55241.341      187.75162      187.99999      913.47684    
     60800  -55569.787      358.17705     -55211.61       187.73339      187.9832       913.82723    
     60900  -55539.957      358.57734     -55181.38       187.7137       187.96451      914.17763    
     61000  -55511.729      361.08395     -55150.645      187.69571      187.94728      914.52802    
     61100  -55480.13       360.21539     -55119.915      187.6765       187.92866      914.87842    
     61200  -55449.736      360.25103     -55089.485      187.65844      187.91064      915.22881    
     61300  -55416.195      356.94621     -55059.248      187.63982      187.89179      915.5792     
     61400  -55388.47       359.55745     -55028.912      187.62152      187.87321      915.9296     
     61500  -55358.285      359.7706      -54998.515      187.60369      187.85501      916.27999    
     61600  -55327.974      360.60924     -54967.365      187.58509      187.83571      916.63039    
     61700  -55299.354      364.33263     -54935.022      187.56755      187.81773      916.98078    
     61800  -55263.328      360.01465     -54903.314      187.54884      187.79824      917.33117    
     61900  -55233.93       361.74822     -54872.182      187.53144      187.77973      917.68157    
     62000  -55200.576      360.35155     -54840.224      187.51336      187.76085      918.03196    
     62100  -55166.903      357.99913     -54808.904      187.49473      187.74176      918.38236    
     62200  -55134.438      357.34339     -54777.095      187.47669      187.72314      918.73275    
     62300  -55108.964      363.5056      -54745.458      187.45799      187.70377      919.08314    
     62400  -55074.323      360.99961     -54713.323      187.43965      187.68556      919.43354    
     62500  -55043.181      361.41183     -54681.769      187.4199       187.66612      919.78393    
     62600  -55010.661      360.86058     -54649.8        187.4018       187.64802      920.13432    
     62700  -54978.661      360.17706     -54618.484      187.38229      187.62862      920.48472    
     62800  -54944.995      358.22283     -54586.772      187.36326      187.60978      920.83511    
     62900  -54912.52       358.91593     -54553.604      187.34428      187.59069      921.18551    
     63000  -54880.338      359.64051     -54520.698      187.32472      187.57089      921.5359     
     63100  -54847.768      359.37511     -54488.393      187.30574      187.5518       921.88629    
     63200  -54818.784      363.04673     -54455.737      187.28631      187.53211      922.23669    
     63300  -54783.465      359.59075     -54423.874      187.26689      187.5121       922.58708    
     63400  -54750.982      359.17698     -54391.805      187.24816      187.49255      922.93748    
     63500  -54725.22       365.64242     -54359.578      187.22876      187.47233      923.28787    
     63600  -54688.391      361.2437      -54327.148      187.21037      187.45276      923.63826    
     63700  -54654.486      359.4919      -54294.994      187.19151      187.43276      923.98866    
     63800  -54623.049      360.26476     -54262.784      187.17259      187.41283      924.33905    
     63900  -54590.921      361.38036     -54229.54       187.15456      187.39397      924.68945    
     64000  -54558.301      362.39139     -54195.91       187.13541      187.37398      925.03984    
     64100  -54518.565      357.37025     -54161.195      187.11708      187.35546      925.39023    
     64200  -54488.851      361.76801     -54127.083      187.09803      187.33641      925.74063    
     64300  -54457.33       364.7049      -54092.625      187.07925      187.31771      926.09102    
     64400  -54419.434      361.00455     -54058.429      187.06076      187.29956      926.44141    
     64500  -54384.301      359.74908     -54024.552      187.04111      187.28033      926.79181    
     64600  -54350.523      359.84251     -53990.68       187.02295      187.26248      927.1422     
     64700  -54318.226      361.09217     -53957.134      187.00384      187.24373      927.4926     
     64800  -54283.521      359.85921     -53923.662      186.98488      187.2252       927.84299    
     64900  -54251.578      362.00906     -53889.569      186.96659      187.20749      928.19338    
     65000  -54213.542      357.77667     -53855.765      186.94718      187.18871      928.54378    
     65100  -54182.148      360.62338     -53821.524      186.92928      187.17128      928.89417    
     65200  -54145.203      358.26607     -53786.937      186.91029      187.15296      929.24457    
     65300  -54111.153      360.35052     -53750.802      186.89235      187.13538      929.59496    
     65400  -54074.941      359.41876     -53715.522      186.87419      187.11748      929.94535    
     65500  -54037.885      359.32494     -53678.56       186.85548      187.09912      930.29575    
     65600  -54004.746      362.59997     -53642.146      186.83844      187.08209      930.64614    
     65700  -53965.086      358.45131     -53606.635      186.81942      187.06298      930.99653    
     65800  -53929.815      358.35641     -53571.459      186.80178      187.04541      931.34693    
     65900  -53899.223      363.25917     -53535.964      186.78397      187.0275       931.69732    
     66000  -53857.622      357.24318     -53500.379      186.76502      187.00829      932.04772    
     66100  -53827.57       362.85727     -53464.713      186.74832      186.99167      932.39811    
     66200  -53785.647      356.42379     -53429.223      186.72908      186.97235      932.7485     
     66300  -53753.052      360.16167     -53392.891      186.71138      186.95466      933.0989     
     66400  -53719.227      362.77837     -53356.449      186.69388      186.93747      933.44929    
     66500  -53680.508      360.19405     -53320.314      186.67476      186.91876      933.79969    
     66600  -53643.991      360.97564     -53283.015      186.65796      186.90239      934.15008    
     66700  -53609.106      363.85187     -53245.254      186.63942      186.88428      934.50047    
     66800  -53570.045      362.41454     -53207.63       186.62173      186.86694      934.85087    
     66900  -53530.323      359.85576     -53170.467      186.60491      186.85029      935.20126    
     67000  -53491.722      359.68586     -53132.036      186.58633      186.83179      935.55166    
     67100  -53456.74       361.80385     -53094.936      186.56994      186.81532      935.90205    
     67200  -53416.655      359.56187     -53057.093      186.55246      186.79767      936.25244    
     67300  -53377.713      358.8273      -53018.886      186.53518      186.78014      936.60284    
     67400  -53343.872      362.96815     -52980.904      186.51879      186.76363      936.95323    
     67500  -53304.294      362.27552     -52942.018      186.50112      186.74562      937.30362    
     67600  -53267.025      362.79496     -52904.23       186.48481      186.72901      937.65402    
     67700  -53227.481      362.15723     -52865.324      186.46804      186.71198      938.00441    
     67800  -53189.398      363.13256     -52826.266      186.45106      186.69445      938.35481    
     67900  -53150.035      363.0742      -52786.96       186.43479      186.67758      938.7052     
     68000  -53111.463      363.18802     -52748.275      186.41757      186.66026      939.05559    
     68100  -53071.847      362.59475     -52709.253      186.40154      186.64364      939.40599    
     68200  -53032.102      362.21132     -52669.891      186.3848       186.6261       939.75638    
     68300  -52988.794      358.01186     -52630.782      186.36817      186.60926      940.10678    
     68400  -52953.268      361.8739      -52591.394      186.35232      186.59317      940.45717    
[...]
     81600  -67065.333      304.4697      -66760.863      185.72572      185.88743      986.70916    
     81700  -67093.526      360.40366     -66733.122      185.74098      185.90404      987.05956    
     81800  -67135.833      433.42424     -66702.409      185.75529      185.92391      987.40995    
     81900  -67169.422      381.80425     -66787.618      185.77056      185.94734      987.76034    
     82000  -67182.507      315.6755      -66866.832      185.78946      185.96772      988.11074    
     82100  -67210.104      335.63343     -66874.47       185.81323      185.98388      988.46113    
     82200  -67216.753      376.22111     -66840.532      185.83841      185.99394      988.81152    
     82300  -67217.441      385.57339     -66831.868      185.86089      186.00877      989.16192    
     82400  -67222.075      354.38405     -66867.691      185.88287      186.02692      989.51231    
     82500  -67247.648      348.75827     -66898.889      185.90162      186.04885      989.86271    
     82600  -67273.682      360.96778     -66912.714      185.92066      186.0752       990.2131     
     82700  -67304.259      371.25237     -66933.007      185.93974      186.10087      990.56349    
     82800  -67332.569      359.72638     -66972.842      185.9563       186.12089      990.91389    
     82900  -67359.829      348.41825     -67011.411      185.97642      186.13895      991.26428    
     83000  -67373.718      342.97744     -67030.741      185.99445      186.15089      991.61468    
     83100  -67365.242      345.83664     -67019.405      186.01094      186.16264      991.96507    
     83200  -67333.587      350.45394     -66983.133      186.02663      186.17543      992.31546    
     83300  -67311.894      371.41112     -66940.483      186.04038      186.18633      992.66586    
     83400  -67290.299      371.81152     -66918.487      186.05438      186.19875      993.01625    
     83500  -67282.866      361.36712     -66921.498      186.06854      186.2135       993.36665    
     83600  -67288.763      359.93728     -66928.825      186.08006      186.22704      993.71704    
     83700  -67303.904      364.22033     -66939.684      186.09025      186.23979      994.06743    
     83800  -67315.522      358.4679      -66957.054      186.10101      186.25011      994.41783    
     83900  -67347.562      366.11406     -66981.448      186.10924      186.25834      994.76822    
     84000  -67369.318      354.30947     -67015.009      186.11735      186.26759      995.11861    
     84100  -67391.067      349.80574     -67041.261      186.12351      186.27555      995.46901    
     84200  -67395.273      347.43079     -67047.842      186.13125      186.28534      995.8194     
     84300  -67374.235      342.35283     -67031.882      186.13851      186.29233      996.1698     
     84400  -67344.559      352.09246     -66992.467      186.14489      186.30095      996.52019    
     84500  -67315.172      373.68689     -66941.485      186.15175      186.31229      996.87058    
     84600  -67286.38       372.94526     -66913.435      186.15551      186.3242       997.22098    
     84700  -67290.668      371.6598      -66919.008      186.16234      186.33802      997.57137    
     84800  -67312.334      366.73268     -66945.601      186.17108      186.35038      997.92177    
     84900  -67357.188      363.29065     -66993.897      186.18017      186.36058      998.27216    
     85000  -67386.434      344.50739     -67041.927      186.19155      186.3731       998.62255    
     85100  -67398.855      339.9767      -67058.878      186.20253      186.38377      998.97295    
     85200  -67390.697      352.79624     -67037.901      186.21412      186.39277      999.32334    
     85300  -67369.774      365.63025     -67004.144      186.22919      186.40363      999.67373    
     85400  -67347.258      366.18434     -66981.074      186.24514      186.41263      1000.0241    
     85500  -67321.482      353.43288     -66968.049      186.26066      186.41901      1000.3745    
     85600  -67296.549      354.33464     -66942.215      186.27803      186.4289       1000.7249    
     85700  -67278.317      368.87063     -66909.446      186.29104      186.43922      1001.0753    
     85800  -67288.172      385.4438      -66902.728      186.30293      186.45095      1001.4257    
     85900  -67315.151      371.72984     -66943.421      186.31132      186.46342      1001.7761    
     86000  -67361.599      355.84575     -67005.754      186.31714      186.47668      1002.1265    
     86100  -67385.089      333.04868     -67052.04       186.32238      186.49056      1002.4769    
     86200  -67408.15       347.85647     -67060.293      186.32598      186.50375      1002.8273    
     86300  -67412.358      362.13812     -67050.22       186.33057      186.51691      1003.1777    
     86400  -67404.3        359.25934     -67045.041      186.33478      186.52804      1003.5281    
     86500  -67382.695      346.23976     -67036.455      186.33838      186.53885      1003.8785    
     86600  -67357.14       346.05358     -67011.086      186.34344      186.5503       1004.2289    
     86700  -67331.036      361.9043      -66969.132      186.34806      186.56075      1004.5792    
     86800  -67311.063      376.0097      -66935.054      186.35558      186.57185      1004.9296    
     86900  -67316.095      382.72272     -66933.372      186.36405      186.57928      1005.28      
     87000  -67343.165      368.05321     -66975.111      186.37488      186.58672      1005.6304    
     87100  -67364.624      340.97607     -67023.648      186.3881       186.59379      1005.9808    
     87200  -67382.45       342.03311     -67040.417      186.40218      186.59932      1006.3312    
     87300  -67383.713      355.24201     -67028.471      186.41598      186.60511      1006.6816    
     87400  -67373.017      362.58341     -67010.434      186.4293       186.612        1007.032     
     87500  -67364.709      363.21767     -67001.491      186.44046      186.61947      1007.3824    
     87600  -67355.817      356.21808     -66999.599      186.4505       186.63012      1007.7328    
     87700  -67359.403      360.18245     -66999.22       186.45732      186.64262      1008.0832    
     87800  -67359.918      358.91991     -67000.998      186.46579      186.6571       1008.4336    
     87900  -67363.887      361.82714     -67002.06       186.47319      186.67234      1008.784     
     88000  -67357.124      358.89113     -66998.233      186.48026      186.68848      1009.1344    
     88100  -67353.365      357.40592     -66995.959      186.48987      186.70655      1009.4848    
     88200  -67354.309      354.33443     -66999.974      186.4983       186.71986      1009.8352    
     88300  -67368.51       360.83138     -67007.679      186.50787      186.73292      1010.1856    
     88400  -67379.739      356.26386     -67023.476      186.51736      186.74486      1010.5359    
     88500  -67384.08       349.20554     -67034.875      186.52467      186.75211      1010.8863    
     88600  -67376.005      348.00561     -67028          186.53441      186.76127      1011.2367    
     88700  -67357.399      355.65639     -67001.743      186.5429       186.76598      1011.5871    
     88800  -67346.124      373.42382     -66972.7        186.55338      186.76759      1011.9375    
     88900  -67345.35       377.56598     -66967.784      186.56448      186.76742      1012.2879    
     89000  -67358.509      362.50694     -66996.002      186.57254      186.76589      1012.6383    
     89100  -67378.097      349.16073     -67028.937      186.58001      186.76608      1012.9887    
     89200  -67388.834      345.84593     -67042.988      186.58512      186.76837      1013.3391    
     89300  -67385.002      350.89109     -67034.111      186.58779      186.77273      1013.6895    
     89400  -67379.512      369.25702     -67010.255      186.58762      186.78043      1014.0399    
     89500  -67373.009      377.52322     -66995.485      186.58609      186.79154      1014.3903    
     89600  -67366.681      360.76043     -67005.92       186.58421      186.80613      1014.7407    
     89700  -67381.01       352.70667     -67028.303      186.58431      186.82187      1015.0911    
     89800  -67392.624      349.26857     -67043.355      186.58632      186.8372       1015.4415    
     89900  -67401.97       355.85448     -67046.116      186.59269      186.85113      1015.7919    
     90000  -67399.666      356.81793     -67042.849      186.60185      186.8605       1016.1422    
     90100  -67408.909      362.22697     -67046.682      186.61458      186.8675       1016.4926    
     90200  -67404.15       348.65498     -67055.495      186.63007      186.87363      1016.843     
     90300  -67391.646      342.35341     -67049.292      186.64544      186.87874      1017.1934    
     90400  -67367.251      349.65703     -67017.594      186.66143      186.8834       1017.5438    
     90500  -67333.646      359.22084     -66974.425      186.67612      186.88751      1017.8942    
     90600  -67307.839      368.05207     -66939.787      186.68902      186.89128      1018.2446    
     90700  -67301.098      372.99945     -66928.098      186.69812      186.89693      1018.595     
     90800  -67312.464      365.98397     -66946.48       186.70199      186.9025       1018.9454    
     90900  -67343.225      358.14009     -66985.084      186.7014       186.90985      1019.2958    
     91000  -67369.814      351.64466     -67018.17       186.69404      186.91858      1019.6462    
     91100  -67397.409      357.40775     -67040.001      186.6829       186.92786      1019.9966    
     91200  -67402.878      349.05673     -67053.822      186.66835      186.93743      1020.347     
     91300  -67411.637      352.78843     -67058.848      186.653        186.94594      1020.6974    
     91400  -67402.83       349.35789     -67053.472      186.63863      186.95306      1021.0478    
     91500  -67384.009      350.95387     -67033.055      186.62781      186.95858      1021.3982    
     91600  -67365.635      362.26577     -67003.37       186.62016      186.96205      1021.7485    
     91700  -67355.144      376.64144     -66978.502      186.61824      186.96527      1022.0989    
     91800  -67346.612      371.21511     -66975.396      186.62122      186.96716      1022.4493    
     91900  -67363.024      366.47141     -66996.552      186.62814      186.96963      1022.7997    
     92000  -67385.546      356.79172     -67028.754      186.63747      186.97161      1023.1501    
     92100  -67404.418      351.19313     -67053.225      186.64938      186.97146      1023.5005    
     92200  -67413.645      353.51183     -67060.133      186.66225      186.97287      1023.8509    
     92300  -67419.499      362.85489     -67056.644      186.67533      186.9755       1024.2013    
     92400  -67414.156      358.54992     -67055.606      186.68891      186.98066      1024.5517    
     92500  -67409.016      353.24781     -67055.768      186.69956      186.98789      1024.9021    
     92600  -67392.276      346.00565     -67046.271      186.70717      186.99772      1025.2525    
     92700  -67364.597      350.06636     -67014.531      186.71154      187.00952      1025.6029    
     92800  -67335.685      365.53143     -66970.154      186.71004      187.02088      1025.9533    
     92900  -67307.277      369.15705     -66938.12       186.70532      187.03364      1026.3037    
     93000  -67296.242      366.53877     -66929.703      186.69979      187.04532      1026.6541    
     93100  -67318.239      370.06239     -66948.177      186.69286      187.05333      1027.0045    
     93200  -67342.125      359.71708     -66982.408      186.68832      187.05937      1027.3549    
     93300  -67369.712      353.33719     -67016.375      186.68402      187.06245      1027.7052    
     93400  -67391.431      349.95986     -67041.471      186.6805       187.06268      1028.0556    
     93500  -67402.852      352.4181      -67050.434      186.67874      187.06069      1028.406     
     93600  -67393.771      352.31166     -67041.459      186.67614      187.05564      1028.7564    
     93700  -67379.257      357.59301     -67021.664      186.67456      187.04686      1029.1068    
     93800  -67366.806      363.41433     -67003.391      186.6732       187.03735      1029.4572    
     93900  -67357.217      361.23197     -66995.985      186.67163      187.02638      1029.8076    
     94000  -67361.078      361.14919     -66999.929      186.66973      187.01781      1030.158     
     94100  -67367.1        357.22379     -67009.877      186.66639      187.01184      1030.5084    
     94200  -67369.261      351.88493     -67017.376      186.66291      187.01034      1030.8588    
     94300  -67390.237      365.87159     -67024.365      186.65893      187.01278      1031.2092    
     94400  -67398.802      357.9631      -67040.838      186.65423      187.02053      1031.5596    
     94500  -67420.919      356.57088     -67064.348      186.6462       187.03143      1031.91      
     94600  -67427.657      346.8788      -67080.778      186.63747      187.04358      1032.2604    
     94700  -67417.891      343.21686     -67074.674      186.62945      187.05641      1032.6108    
     94800  -67404.621      359.49208     -67045.129      186.62378      187.06774      1032.9612    
     94900  -67378.505      364.75396     -67013.751      186.62034      187.07636      1033.3115    
     95000  -67363.564      364.72832     -66998.835      186.6212       187.08488      1033.6619    
     95100  -67358.324      358.26145     -67000.062      186.62383      187.08788      1034.0123    
     95200  -67352.142      350.71034     -67001.432      186.62935      187.08868      1034.3627    
     95300  -67339.465      351.76833     -66987.696      186.63608      187.08493      1034.7131    
     95400  -67325.693      362.62216     -66963.071      186.64205      187.07842      1035.0635    
     95500  -67324.36       375.63572     -66948.725      186.64599      187.06929      1035.4139    
     95600  -67328.577      368.05045     -66960.526      186.6458       187.05929      1035.7643    
     95700  -67346.504      355.3485      -66991.155      186.63999      187.04944      1036.1147    
     95800  -67375.593      355.39346     -67020.2        186.629        187.04241      1036.4651    
     95900  -67387.584      353.66988     -67033.914      186.61303      187.03916      1036.8155    
     96000  -67393.261      355.93601     -67037.325      186.5925       187.03951      1037.1659    
     96100  -67405.25       362.60525     -67042.645      186.56754      187.04344      1037.5163    
     96200  -67406.085      354.36664     -67051.718      186.54168      187.04814      1037.8667    
     96300  -67402.251      348.45279     -67053.798      186.51648      187.05255      1038.2171    
     96400  -67392.464      350.34132     -67042.123      186.49508      187.0558       1038.5675    
     96500  -67383.395      363.70934     -67019.686      186.47946      187.05724      1038.9178    
     96600  -67370.671      368.73852     -67001.932      186.46802      187.05532      1039.2682    
     96700  -67369.032      367.47749     -67001.554      186.46285      187.05231      1039.6186    
     96800  -67375.904      358.61313     -67017.291      186.46266      187.04754      1039.969     
     96900  -67395.006      356.96467     -67038.041      186.465        187.03935      1040.3194    
     97000  -67401.835      351.68306     -67050.152      186.47288      187.03255      1040.6698    
     97100  -67409.817      358.50929     -67051.308      186.4798       187.02425      1041.0202    
     97200  -67408.552      359.82059     -67048.731      186.4849       187.01782      1041.3706    
     97300  -67402.982      355.23942     -67047.743      186.48856      187.01557      1041.721     
     97400  -67391.299      348.95079     -67042.349      186.48597      187.01587      1042.0714    
     97500  -67379.35       357.40535     -67021.945      186.47758      187.02079      1042.4218    
     97600  -67346.736      357.0332      -66989.703      186.46391      187.0296       1042.7722    
     97700  -67323.603      365.00769     -66958.595      186.44246      187.03797      1043.1226    
     97800  -67312.048      368.59163     -66943.456      186.41862      187.04731      1043.473     
     97900  -67323.181      370.85538     -66952.326      186.39328      187.05392      1043.8234    
     98000  -67337.682      358.16499     -66979.517      186.36754      187.05486      1044.1738    
     98100  -67362.228      354.10623     -67008.121      186.34597      187.05381      1044.5242    
     98200  -67388.721      358.16111     -67030.56       186.32651      187.04583      1044.8745    
     98300  -67407.752      360.33927     -67047.412      186.31224      187.03366      1045.2249    
     98400  -67411.132      352.07365     -67059.058      186.3002       187.01706      1045.5753    
     98500  -67418.959      355.65696     -67063.302      186.28968      186.99579      1045.9257    
     98600  -67400.617      346.19293     -67054.424      186.28058      186.97368      1046.2761    
     98700  -67382.332      352.67503     -67029.657      186.26956      186.95118      1046.6265    
     98800  -67366.117      365.75604     -67000.361      186.25674      186.93296      1046.9769    
     98900  -67344.038      365.10903     -66978.928      186.2416       186.91954      1047.3273    
     99000  -67346.756      373.1021      -66973.654      186.22298      186.91072      1047.6777    
     99100  -67361.187      369.8662      -66991.32       186.20237      186.90817      1048.0281    
     99200  -67380.547      355.46079     -67025.086      186.1805       186.9098       1048.3785    
     99300  -67407.527      351.36564     -67056.162      186.15556      186.91307      1048.7289    
     99400  -67415.028      345.61929     -67069.408      186.13023      186.91855      1049.0793    
     99500  -67410.188      349.62439     -67060.564      186.10432      186.92237      1049.4297    
     99600  -67391.503      352.08404     -67039.419      186.07897      186.9242       1049.7801    
     99700  -67382.949      360.38118     -67022.568      186.0553       186.92215      1050.1305    
     99800  -67365.552      355.74863     -67009.803      186.0343       186.91725      1050.4808    
     99900  -67350.55       357.17361     -66993.376      186.01625      186.90744      1050.8312    
    100000  -67334.244      361.61895     -66972.625      186.0001       186.89493      1051.1816    
Loop time of 35851.8 on 16 procs for 100000 steps with 9248 atoms

Performance: 0.241 ns/day, 99.588 hours/ns, 2.789 timesteps/s, 25.795 katom-step/s
47.7% CPU use with 16 MPI tasks x 1 OpenMP threads

MPI task timing breakdown:
Section |  min time  |  avg time  |  max time  |%varavg| %total
---------------------------------------------------------------
Pair    | 1109.4     | 1267.3     | 1403.4     | 241.6 |  3.53
Neigh   | 4.9611     | 5.9962     | 7.1408     |  28.8 |  0.02
Comm    | 4781.4     | 5274.2     | 5767.4     | 376.7 | 14.71
Output  | 115.51     | 118.79     | 123.04     |  18.8 |  0.33
Modify  | 25372      | 25776      | 26156      | 153.0 | 71.90
Other   |            | 3410       |            |       |  9.51

Nlocal:            578 ave         738 max         414 min
Histogram: 1 4 3 0 0 0 0 4 2 2
Nghost:        1966.12 ave        2330 max        1705 min
Histogram: 3 5 0 0 0 4 0 0 0 4
Neighs:              0 ave           0 max           0 min
Histogram: 16 0 0 0 0 0 0 0 0 0

Total # of neighbors = 0
Ave neighs/atom = 0
Neighbor list builds = 730
Dangerous builds = 0
Total wall time: 9:57:44
