LAMMPS (2 Aug 2023 - Update 3)
OMP_NUM_THREADS environment is not set. Defaulting to 1 thread. (src/comm.cpp:98)
  using 1 OpenMP thread(s) per MPI task
Reading data file ...
  orthogonal box = (-100 -100 -2.3312515) to (100 100 46.166171)
  3 by 4 by 1 MPI processor grid
  reading atoms ...
  1480 atoms
  read_data CPU = 0.004 seconds
Replication is creating a 1x1x11 = 11 times larger system...
  orthogonal box = (-100 -100 -2.3312515) to (100 100 531.1404)
  2 by 2 by 3 MPI processor grid
  16280 atoms
  replicate CPU = 0.001 seconds
System init for write_data ...
WARNING: Communication cutoff is 0.0. No ghost atoms will be generated. Atoms may get lost. (src/comm_brick.cpp:210)
Reading airebo potential file CH.airebo with DATE: 2011-10-25
Reading airebo potential file CH.airebo with DATE: 2011-10-25
Reading airebo potential file CH.airebo with DATE: 2011-10-25
Neighbor list info ...
  update: every = 1 steps, delay = 0 steps, check = yes
  max neighbors/atom: 2000, page size: 100000
  master list distance cutoff = 13.2
  ghost atom cutoff = 13.2
  binsize = 6.6, bins = 31 31 81
  6 neighbor lists, perpetual/occasional/extra = 6 0 0
  (1) pair airebo, perpetual, skip from (5)
      attributes: full, newton on, ghost
      pair build: skip/ghost
      stencil: none
      bin: none
  (2) pair airebo, perpetual, skip from (5)
      attributes: full, newton on, ghost
      pair build: skip/ghost
      stencil: none
      bin: none
  (3) pair airebo, perpetual, skip from (5)
      attributes: full, newton on, ghost
      pair build: skip/ghost
      stencil: none
      bin: none
  (4) pair lj/cut, perpetual, skip from (6)
      attributes: half, newton on, cut 13
      pair build: skip
      stencil: none
      bin: none
  (5) neighbor class addition, perpetual
      attributes: full, newton on, ghost
      pair build: full/bin/ghost
      stencil: full/ghost/bin/3d
      bin: standard
  (6) neighbor class addition, perpetual
      attributes: half, newton on, cut 13
      pair build: half/bin/atomonly/newton
      stencil: half/bin/3d
      bin: standard
Setting up sd style minimization ...
  Unit style    : metal
  Current step  : 0
Per MPI rank memory allocation (min/avg/max) = 15.04 | 15.08 | 15.43 Mbytes
   Step          Temp          E_pair         E_mol          TotEng         Press     
         0   0             -118151.17      0             -118151.17      378.42796    
         4   0             -118443.46      0             -118443.46      50.287364    
Loop time of 0.174899 on 12 procs for 4 steps with 16280 atoms

93.1% CPU use with 12 MPI tasks x 1 OpenMP threads

Minimization stats:
  Stopping criterion = energy tolerance
  Energy initial, next-to-last, final = 
     -118151.174264018  -118436.237079087  -118443.462326002
  Force two-norm initial, final = 176.87264 28.338797
  Force max component initial, final = 3.434546 0.53009031
  Final line search alpha, max atom move = 0.13584282 0.072008965
  Iterations, force evaluations = 4 8

MPI task timing breakdown:
Section |  min time  |  avg time  |  max time  |%varavg| %total
---------------------------------------------------------------
Pair    | 0.11396    | 0.14542    | 0.17198    |   6.1 | 83.15
Neigh   | 0          | 0          | 0          |   0.0 |  0.00
Comm    | 0.0022809  | 0.028711   | 0.060087   |  13.7 | 16.42
Output  | 0          | 0          | 0          |   0.0 |  0.00
Modify  | 0          | 0          | 0          |   0.0 |  0.00
Other   |            | 0.0007654  |            |       |  0.44

Nlocal:        1356.67 ave        1433 max        1281 min
Histogram: 3 0 0 0 2 4 0 0 0 3
Nghost:           4877 ave        4964 max        4794 min
Histogram: 2 1 0 0 4 2 0 0 2 1
Neighs:              0 ave           0 max           0 min
Histogram: 12 0 0 0 0 0 0 0 0 0

Total # of neighbors = 0
Ave neighs/atom = 0
Neighbor list builds = 0
Dangerous builds = 0
Setting up Verlet run ...
  Unit style    : metal
  Current step  : 4
  Time step     : 0.001
Per MPI rank memory allocation (min/avg/max) = 15.67 | 15.7 | 16.05 Mbytes
   Step          Temp          E_pair         E_mol          TotEng         Press          Volume    
         4   300           -118443.46      0             -117812.19      81.885493      21338866     
Loop time of 1.17662e-05 on 12 procs for 0 steps with 16280 atoms

91.4% CPU use with 12 MPI tasks x 1 OpenMP threads

MPI task timing breakdown:
Section |  min time  |  avg time  |  max time  |%varavg| %total
---------------------------------------------------------------
Pair    | 0          | 0          | 0          |   0.0 |  0.00
Neigh   | 0          | 0          | 0          |   0.0 |  0.00
Comm    | 0          | 0          | 0          |   0.0 |  0.00
Output  | 0          | 0          | 0          |   0.0 |  0.00
Modify  | 0          | 0          | 0          |   0.0 |  0.00
Other   |            | 1.177e-05  |            |       |100.00

Nlocal:        1356.67 ave        1371 max        1342 min
Histogram: 2 1 1 2 0 0 2 1 1 2
Nghost:        4876.33 ave        4903 max        4856 min
Histogram: 2 2 0 0 4 1 1 0 1 1
Neighs:              0 ave           0 max           0 min
Histogram: 12 0 0 0 0 0 0 0 0 0

Total # of neighbors = 0
Ave neighs/atom = 0
Neighbor list builds = 0
Dangerous builds = 0
WARNING: Dump 2 includes no atom IDs and is not sorted by ID. This may complicate post-processing tasks or visualization (src/dump.cpp:221)
Setting up Verlet run ...
  Unit style    : metal
  Current step  : 0
  Time step     : 0.001
Per MPI rank memory allocation (min/avg/max) = 17.17 | 17.2 | 17.55 Mbytes
   Step         PotEng         KinEng         TotEng           Lx             Ly             Lz      
         0  -118443.46      631.26777     -117812.19      200            200            533.47165    
       100  -118089.12      320.53323     -117768.58      200.00258      199.98885      533.73839    
       200  -118117.21      407.47301     -117709.73      200.00857      199.96892      534.00512    
       300  -118061.5       421.31279     -117640.19      200.03729      199.9582       534.27186    
       400  -118034.44      469.84834     -117564.59      200.05212      199.9292       534.5386     
       500  -118003.69      517.87726     -117485.81      200.08647      199.91611      534.80533    
       600  -117976.59      569.68946     -117406.9       200.13019      199.90334      535.07207    
       700  -117935.99      601.42006     -117334.57      200.14783      199.86383      535.3388     
       800  -117893.54      619.40009     -117274.14      200.2001       199.83699      535.60554    
       900  -117887.84      652.20254     -117235.64      200.23312      199.78823      535.87228    
      1000  -117868.52      631.71931     -117236.8       200.26106      199.73795      536.13901    
      1100  -117895.93      629.83254     -117266.1       200.30951      199.7017       536.40575    
      1200  -117902.38      615.37064     -117287.01      200.32406      199.6614       536.67248    
      1300  -117916.18      630.62753     -117285.55      200.3406       199.63719      536.93922    
      1400  -117901.28      637.45646     -117263.83      200.3524       199.62686      537.20595    
      1500  -117881.14      642.00272     -117239.14      200.33041      199.61898      537.47269    
      1600  -117871.76      648.84724     -117222.91      200.31928      199.63473      537.73943    
      1700  -117853.18      635.50306     -117217.68      200.29202      199.66285      538.00616    
      1800  -117872.55      642.58027     -117229.97      200.26141      199.70141      538.2729     
      1900  -117866.51      614.81534     -117251.7       200.23523      199.75481      538.53963    
      2000  -117884.82      618.23098     -117266.59      200.17291      199.80097      538.80637    
      2100  -117865.53      603.66239     -117261.87      200.12762      199.86189      539.07311    
      2200  -117861.61      627.24014     -117234.37      200.07553      199.91551      539.33984    
      2300  -117844.66      637.97783     -117206.68      200.02016      199.96182      539.60658    
      2400  -117840.77      644.84332     -117195.93      199.98496      200.00522      539.87331    
      2500  -117836.83      635.42944     -117201.4       199.94853      200.03221      540.14005    
      2600  -117842.99      632.03795     -117210.95      199.91788      200.04791      540.40678    
      2700  -117840.16      624.91982     -117215.24      199.90414      200.06221      540.67352    
      2800  -117831.62      627.10951     -117204.51      199.88529      200.06453      540.94026    
      2900  -117823.19      638.45558     -117184.73      199.87617      200.0651       541.20699    
      3000  -117805.55      636.51534     -117169.03      199.87889      200.06563      541.47373    
      3100  -117809.69      640.87023     -117168.82      199.86964      200.05169      541.74046    
      3200  -117804.69      621.86576     -117182.82      199.87474      200.04202      542.0072     
      3300  -117816.16      623.55051     -117192.61      199.87917      200.02814      542.27394    
      3400  -117812         624.23244     -117187.77      199.88177      200.01431      542.54067    
      3500  -117806.07      637.35613     -117168.71      199.89006      200.00452      542.80741    
      3600  -117788.55      638.17213     -117150.38      199.88878      199.99275      543.07414    
      3700  -117784.33      638.56761     -117145.76      199.88232      199.98469      543.34088    
      3800  -117781.98      627.88327     -117154.1       199.87676      199.98458      543.60761    
      3900  -117789.62      626.25935     -117163.36      199.85916      199.98677      543.87435    
      4000  -117776.77      617.20875     -117159.56      199.84223      199.99516      544.14109    
      4100  -117765.67      628.34252     -117137.33      199.82615      200.01158      544.40782    
      4200  -117750.94      637.57686     -117113.37      199.79916      200.02886      544.67456    
      4300  -117738.06      634.71327     -117103.35      199.77472      200.0533       544.94129    
      4400  -117744.73      635.55843     -117109.17      199.74512      200.07749      545.20803    
      4500  -117748.34      627.2965      -117121.04      199.71439      200.10311      545.47477    
      4600  -117745.89      625.57405     -117120.32      199.68585      200.1283       545.7415     
      4700  -117734.58      632.40389     -117102.17      199.65371      200.14953      546.00824    
      4800  -117710.09      633.82477     -117076.27      199.62521      200.16792      546.27497    
      4900  -117707.66      648.60583     -117059.06      199.60461      200.18125      546.54171    
      5000  -117688.95      630.95015     -117058         199.58911      200.18821      546.80844    
      5100  -117694.89      629.5578      -117065.33      199.58007      200.18886      547.07518    
      5200  -117686.18      618.11245     -117068.07      199.57543      200.18549      547.34192    
      5300  -117679.52      621.13421     -117058.38      199.57005      200.17739      547.60865    
      5400  -117670.4       632.613       -117037.78      199.56698      200.16798      547.87539    
      5500  -117656.69      635.86363     -117020.82      199.56052      200.15518      548.14212    
      5600  -117651.26      633.22827     -117018.04      199.55379      200.14334      548.40886    
      5700  -117656.37      634.27215     -117022.1       199.55064      200.13417      548.6756     
      5800  -117651.43      630.31327     -117021.11      199.54795      200.12756      548.94233    
      5900  -117631.38      622.95251     -117008.42      199.54332      200.12447      549.20907    
      6000  -117619.49      632.53365     -116986.96      199.53498      200.12481      549.4758     
      6100  -117607.52      639.0279      -116968.5       199.51868      200.12804      549.74254    
      6200  -117600.92      637.80522     -116963.12      199.49908      200.13528      550.00927    
      6300  -117599.24      631.66233     -116967.57      199.47971      200.1454       550.27601    
      6400  -117592.45      624.00013     -116968.45      199.45662      200.15606      550.54275    
      6500  -117586.28      630.53894     -116955.75      199.43158      200.16671      550.80948    
      6600  -117568.45      635.67936     -116932.78      199.41094      200.17891      551.07622    
      6700  -117557.04      644.10388     -116912.93      199.39215      200.19055      551.34295    
      6800  -117537.15      631.30827     -116905.84      199.37471      200.20037      551.60969    
      6900  -117539.54      630.74486     -116908.8       199.35918      200.20858      551.87643    
      7000  -117530.73      623.51055     -116907.22      199.33933      200.21306      552.14316    
      7100  -117521.04      627.94204     -116893.09      199.32122      200.21449      552.4099     
      7200  -117501.89      629.99043     -116871.9       199.31052      200.21592      552.67663    
      7300  -117493.01      638.37842     -116854.63      199.29856      200.2131       552.94337    
      7400  -117482.21      636.49733     -116845.71      199.28755      200.20772      553.2101     
      7500  -117477.51      634.90373     -116842.6       199.28049      200.20188      553.47684    
      7600  -117471.65      631.97572     -116839.68      199.26811      200.19346      553.74358    
      7700  -117451.35      620.85114     -116830.5       199.25967      200.18691      554.01031    
      7800  -117441.65      626.98663     -116814.66      199.25749      200.18297      554.27705    
      7900  -117429.04      633.4274      -116795.61      199.2463       200.17689      554.54378    
      8000  -117419.62      638.07106     -116781.55      199.23492      200.17197      554.81052    
      8100  -117403.85      629.52864     -116774.33      199.22335      200.16977      555.07725    
      8200  -117400.96      631.28762     -116769.68      199.20562      200.16627      555.34399    
      8300  -117388.59      626.54491     -116762.05      199.19492      200.16854      555.61073    
      8400  -117371.66      626.07167     -116745.59      199.18148      200.1697       555.87746    
      8500  -117361.97      635.9035      -116726.06      199.16661      200.17202      556.1442     
      8600  -117348.65      638.93734     -116709.71      199.15273      200.17667      556.41093    
      8700  -117335.65      634.85675     -116700.8       199.13335      200.17903      556.67767    
      8800  -117326.83      631.17822     -116695.65      199.1153       200.18244      556.94441    
      8900  -117315.75      628.56352     -116687.19      199.096        200.18564      557.21114    
      9000  -117305.85      633.36483     -116672.49      199.07278      200.18777      557.47788    
      9100  -117287.36      633.44383     -116653.92      199.05614      200.19189      557.74461    
      9200  -117272.93      635.93912     -116636.99      199.04183      200.19305      558.01135    
      9300  -117264.6       638.53074     -116626.07      199.02772      200.19054      558.27808    
      9400  -117251.02      630.77245     -116620.25      199.01742      200.18872      558.54482    
      9500  -117233.89      623.19975     -116610.69      199.00003      200.18288      558.81156    
      9600  -117223.24      629.67636     -116593.56      198.98808      200.17926      559.07829    
      9700  -117199.37      628.35937     -116571.01      198.97998      200.17594      559.34503    
      9800  -117190.26      637.8607      -116552.4       198.9661       200.16925      559.61176    
      9900  -117177.81      633.80679     -116544.01      198.95582      200.16329      559.8785     
     10000  -117169.11      628.48405     -116540.62      198.94408      200.15562      560.14524    
     10100  -117159.07      626.58983     -116532.48      198.93026      200.14656      560.41197    
     10200  -117136.02      621.94404     -116514.08      198.92154      200.14131      560.67871    
     10300  -117120.4       633.80069     -116486.6       198.90545      200.13502      560.94544    
     10400  -117102.56      636.95339     -116465.61      198.89057      200.13197      561.21218    
     10500  -117097.71      638.28143     -116459.43      198.87941      200.13256      561.47891    
     10600  -117083.17      626.01557     -116457.16      198.85922      200.12765      561.74565    
     10700  -117076.86      627.16023     -116449.7       198.8444       200.12589      562.01239    
     10800  -117056.95      623.13916     -116433.81      198.8298       200.12429      562.27912    
     10900  -117039.92      630.68165     -116409.24      198.80598      200.11997      562.54586    
     11000  -117018.88      634.0388      -116384.84      198.79227      200.12194      562.81259    
     11100  -117001.92      635.53473     -116366.39      198.77494      200.12269      563.07933    
     11200  -116988.48      631.11181     -116357.37      198.75509      200.12191      563.34607    
     11300  -116985.33      633.75821     -116351.57      198.7394       200.12397      563.6128     
     11400  -116968.03      628.43884     -116339.59      198.71266      200.12151      563.87954    
     11500  -116949         628.23571     -116320.77      198.69095      200.12084      564.14627    
     11600  -116925.88      629.50085     -116296.38      198.67821      200.12229      564.41301    
     11700  -116912.44      637.24008     -116275.2       198.66028      200.11721      564.67974    
     11800  -116891.94      629.55858     -116262.38      198.64729      200.11266      564.94648    
     11900  -116877.61      623.74022     -116253.87      198.63219      200.10738      565.21322    
     12000  -116866.46      626.71039     -116239.75      198.60816      200.09907      565.47995    
     12100  -116848.78      628.35766     -116220.42      198.59318      200.09564      565.74669    
     12200  -116833.42      635.19796     -116198.22      198.57584      200.08885      566.01342    
     12300  -116809.76      629.99102     -116179.77      198.56155      200.08151      566.28016    
     12400  -116806.43      637.88013     -116168.55      198.55152      200.07433      566.5469     
     12500  -116782.42      621.8565      -116160.56      198.53496      200.06487      566.81363    
     12600  -116774         629.58895     -116144.41      198.51853      200.05717      567.08037    
     12700  -116750.87      627.81046     -116123.05      198.50109      200.05081      567.3471     
     12800  -116734.73      633.1619      -116101.57      198.48178      200.04313      567.61384    
     12900  -116711.82      627.2236      -116084.59      198.46454      200.03637      567.88057    
     13000  -116702.12      633.80512     -116068.31      198.44392      200.02799      568.14731    
     13100  -116682.3       631.38901     -116050.91      198.42635      200.02265      568.41405    
     13200  -116663.27      634.39326     -116028.88      198.40845      200.0184       568.68078    
     13300  -116634.97      633.08964     -116001.88      198.389        200.01337      568.94752    
     13400  -116617.74      630.86134     -115986.88      198.37323      200.00963      569.21425    
     13500  -116607.72      630.42322     -115977.29      198.35337      200.00374      569.48099    
     13600  -116594.64      632.08546     -115962.55      198.32943      199.99852      569.74773    
     13700  -116582.43      635.93815     -115946.49      198.30557      199.99509      570.01446    
     13800  -116559.76      627.724       -115932.03      198.28173      199.99136      570.2812     
     13900  -116542.47      629.40333     -115913.07      198.26058      199.98772      570.54793    
     14000  -116519.99      633.35429     -115886.63      198.24352      199.98509      570.81467    
     14100  -116499.52      635.86147     -115863.66      198.22526      199.97962      571.0814     
     14200  -116483.17      635.8916      -115847.28      198.20435      199.97126      571.34814    
     14300  -116469.03      629.2463      -115839.79      198.18344      199.96193      571.61488    
     14400  -116449.07      626.90707     -115822.16      198.16329      199.95166      571.88161    
     14500  -116432.54      634.46678     -115798.07      198.14135      199.94076      572.14835    
     14600  -116408.6       633.1535      -115775.45      198.12131      199.93056      572.41508    
     14700  -116385.35      631.48546     -115753.86      198.10432      199.92109      572.68182    
     14800  -116361.9       634.16042     -115727.74      198.0853       199.91034      572.94856    
     14900  -116343.02      639.54541     -115703.48      198.06788      199.90236      573.21529    
     15000  -116327.65      634.1581      -115693.49      198.04834      199.89513      573.48203    
     15100  -116314.48      634.77186     -115679.71      198.02501      199.88675      573.74876    
     15200  -116291.34      628.78716     -115662.55      198.00488      199.88135      574.0155     
     15300  -116273.53      631.20458     -115642.33      197.97987      199.87343      574.28223    
     15400  -116258.02      636.5128      -115621.5       197.95535      199.86623      574.54897    
     15500  -116227.8       630.59222     -115597.21      197.93617      199.86029      574.81571    
     15600  -116208.04      634.28883     -115573.75      197.91313      199.84948      575.08244    
     15700  -116190.6       635.9425      -115554.66      197.89265      199.83853      575.34918    
     15800  -116171.97      628.75439     -115543.22      197.87407      199.82813      575.61591    
     15900  -116154.03      627.29689     -115526.73      197.85197      199.81655      575.88265    
     16000  -116130.89      627.04756     -115503.84      197.83114      199.80577      576.14939    
     16100  -116104.9       633.39095     -115471.51      197.81021      199.79582      576.41612    
     16200  -116089.12      638.96551     -115450.16      197.78742      199.78488      576.68286    
     16300  -116069.47      633.36096     -115436.11      197.76547      199.77543      576.94959    
     16400  -116049.75      627.95289     -115421.8       197.74353      199.76579      577.21633    
     16500  -116029.11      627.20191     -115401.9       197.72165      199.75537      577.48306    
     16600  -116000.16      626.9928      -115373.17      197.69905      199.74538      577.7498     
     16700  -115979.7       633.69286     -115346         197.67388      199.7354       578.01654    
     16800  -115962.32      636.1802      -115326.14      197.64888      199.72585      578.28327    
     16900  -115946.34      635.19058     -115311.15      197.62509      199.71694      578.55001    
     17000  -115920.66      625.01062     -115295.65      197.60265      199.70854      578.81674    
     17100  -115898.25      625.87346     -115272.37      197.57958      199.69928      579.08348    
     17200  -115879.33      633.28134     -115246.05      197.5573       199.6899       579.35022    
     17300  -115851.41      628.69296     -115222.71      197.53514      199.68052      579.61695    
     17400  -115832.57      631.83043     -115200.74      197.50952      199.66844      579.88369    
     17500  -115819.64      639.7252      -115179.91      197.48774      199.65694      580.15042    
     17600  -115790.91      628.78302     -115162.13      197.46603      199.64341      580.41716    
     17700  -115772.22      626.56982     -115145.65      197.44275      199.62879      580.68389    
     17800  -115740.86      622.58944     -115118.27      197.42157      199.61451      580.95063    
     17900  -115718.66      630.84708     -115087.81      197.39921      199.59871      581.21737    
     18000  -115699.98      636.53504     -115063.45      197.37664      199.58359      581.4841     
     18100  -115680.34      636.58228     -115043.76      197.35702      199.57133      581.75084    
     18200  -115660.97      631.381       -115029.59      197.33345      199.55855      582.01757    
     18300  -115637.05      625.8437      -115011.21      197.30917      199.54644      582.28431    
     18400  -115607.81      629.39182     -114978.42      197.28605      199.53573      582.55105    
     18500  -115580.06      630.96181     -114949.09      197.26101      199.52399      582.81778    
     18600  -115563.66      634.79372     -114928.87      197.23755      199.51302      583.08452    
     18700  -115546.05      632.27842     -114913.77      197.21348      199.50266      583.35125    
     18800  -115521.01      628.06735     -114892.94      197.18554      199.48977      583.61799    
     18900  -115494.85      631.22296     -114863.63      197.16052      199.47761      583.88472    
     19000  -115474.57      640.75603     -114833.81      197.13461      199.46513      584.15146    
     19100  -115446.24      632.6549      -114813.58      197.10867      199.45202      584.4182     
     19200  -115428.8       634.35837     -114794.44      197.08506      199.4398       584.68493    
     19300  -115403.55      629.86942     -114773.68      197.06036      199.42825      584.95167    
     19400  -115369.91      623.48315     -114746.42      197.03561      199.41788      585.2184     
     19500  -115349.31      637.13599     -114712.17      197.00829      199.40651      585.48514    
     19600  -115326.05      636.87133     -114689.18      196.98062      199.39299      585.75187    
     19700  -115302.72      631.14058     -114671.58      196.95727      199.38093      586.01861    
     19800  -115283.03      631.48439     -114651.54      196.93124      199.36659      586.28535    
     19900  -115255.74      626.92309     -114628.82      196.9083       199.35377      586.55208    
     20000  -115228.88      625.8575      -114603.02      196.8864       199.34055      586.81882    
     20100  -115202.77      633.40422     -114569.36      196.85976      199.32338      587.08555    
     20200  -115176.19      635.54188     -114540.65      196.83923      199.3076       587.35229    
     20300  -115162.82      640.85598     -114521.97      196.81597      199.28772      587.61903    
     20400  -115133.67      631.01459     -114502.65      196.79161      199.26596      587.88576    
     20500  -115114.91      631.48237     -114483.43      196.77295      199.24832      588.1525     
     20600  -115088.27      625.11494     -114463.16      196.74719      199.22973      588.41923    
     20700  -115067.95      627.19294     -114440.76      196.72257      199.21458      588.68597    
     20800  -115040.65      629.92309     -114410.72      196.69859      199.2022       588.9527     
     20900  -115015.33      638.22236     -114377.11      196.67145      199.1893       589.21944    
     21000  -114986.98      635.37792     -114351.6       196.64685      199.1796       589.48618    
     21100  -114963.23      630.89498     -114332.33      196.62016      199.17005      589.75291    
     21200  -114943.34      628.62047     -114314.72      196.59209      199.15959      590.01965    
     21300  -114913.76      626.54885     -114287.21      196.56416      199.14873      590.28638    
     21400  -114892         633.88911     -114258.11      196.53506      199.13532      590.55312    
     21500  -114859.53      629.72404     -114229.81      196.50775      199.1216       590.81986    
     21600  -114831.54      630.78452     -114200.75      196.48251      199.10781      591.08659    
     21700  -114805.91      634.57017     -114171.34      196.45804      199.0925       591.35333    
     21800  -114787.61      642.54756     -114145.07      196.43567      199.0765       591.62006    
     21900  -114761         631.37672     -114129.62      196.4122       199.05987      591.8868     
     22000  -114733.44      624.66584     -114108.77      196.38715      199.04355      592.15353    
     22100  -114705.84      625.59266     -114080.25      196.36172      199.02818      592.42027    
     22200  -114686.05      640.16234     -114045.88      196.33709      199.01298      592.68701    
     22300  -114648.84      630.8596      -114017.98      196.31405      198.99725      592.95374    
     22400  -114625.05      632.44905     -113992.6       196.28964      198.98038      593.22048    
     22500  -114599.65      630.46213     -113969.19      196.2657       198.96397      593.48721    
     22600  -114573.53      623.94464     -113949.58      196.24454      198.9483       593.75395    
     22700  -114558.43      626.82663     -113931.6       196.22272      198.9317       594.02069    
     22800  -114530.21      631.50082     -113898.71      196.20102      198.91536      594.28742    
     22900  -114496.69      632.93717     -113863.76      196.17733      198.8991       594.55416    
     23000  -114469.93      633.78203     -113836.15      196.1496       198.88174      594.82089    
     23100  -114446.1       636.0318      -113810.07      196.12409      198.86617      595.08763    
     23200  -114416.02      631.10742     -113784.91      196.09878      198.85302      595.35436    
     23300  -114393.14      632.27184     -113760.87      196.07084      198.84168      595.6211     
     23400  -114363.23      628.12057     -113735.11      196.04408      198.83114      595.88784    
     23500  -114335.65      633.94428     -113701.7       196.01951      198.82056      596.15457    
     23600  -114300.59      631.27803     -113669.31      195.99358      198.80973      596.42131    
     23700  -114279.22      633.68926     -113645.53      195.96762      198.79947      596.68804    
     23800  -114255.73      626.65823     -113629.07      195.9401       198.78878      596.95478    
     23900  -114228.8       625.92568     -113602.87      195.91099      198.77532      597.22152    
     24000  -114201.01      628.99356     -113572.02      195.88587      198.76108      597.48825    
     24100  -114167.35      628.35757     -113539         195.86261      198.74571      597.75499    
     24200  -114135.28      627.17716     -113508.1       195.83971      198.72817      598.02172    
     24300  -114115.77      634.84468     -113480.93      195.81968      198.71028      598.28846    
     24400  -114087.94      627.88459     -113460.05      195.79895      198.69227      598.55519    
     24500  -114066.6       625.64824     -113440.95      195.77657      198.67423      598.82193    
     24600  -114034.55      625.3563      -113409.2       195.75574      198.6584       599.08867    
     24700  -114008.2       633.41778     -113374.79      195.73249      198.64185      599.3554     
     24800  -113972.97      627.37903     -113345.59      195.70931      198.62493      599.62214    
     24900  -113948.93      631.91685     -113317.01      195.68815      198.60983      599.88887    
     25000  -113918.59      631.22636     -113287.36      195.6643       198.5933       600.15561    
     25100  -113887.16      635.77798     -113251.38      195.64272      198.57818      600.42235    
     25200  -113856.23      635.9281      -113220.3       195.62336      198.56359      600.68908    
     25300  -113833.26      634.21485     -113199.05      195.59919      198.54534      600.95582    
     25400  -113804.79      626.42083     -113178.37      195.57945      198.52963      601.22255    
     25500  -113781.9       632.52415     -113149.38      195.55788      198.51323      601.48929    
     25600  -113747.26      630.28469     -113116.97      195.53369      198.49697      601.75602    
     25700  -113719.82      636.67989     -113083.14      195.51277      198.48509      602.02276    
     25800  -113689.42      638.90869     -113050.51      195.48661      198.47259      602.2895     
     25900  -113658.05      636.83992     -113021.21      195.46108      198.46192      602.55623    
     26000  -113632.33      631.26648     -113001.06      195.44199      198.45437      602.82297    
     26100  -113600.23      622.77671     -112977.45      195.41785      198.4419       603.0897     
     26200  -113573.24      624.99102     -112948.25      195.3955       198.42794      603.35644    
     26300  -113543.84      633.49857     -112910.34      195.37564      198.41384      603.62318    
     26400  -113519.93      642.19329     -112877.73      195.35212      198.39615      603.88991    
     26500  -113489         635.91154     -112853.09      195.33347      198.37945      604.15665    
     26600  -113463.27      633.45498     -112829.81      195.31528      198.36202      604.42338    
     26700  -113428.55      626.05777     -112802.49      195.29535      198.34225      604.69012    
     26800  -113399.1       629.55458     -112769.54      195.27949      198.32423      604.95685    
     26900  -113365.64      636.64095     -112729         195.26217      198.30494      605.22359    
     27000  -113334.64      635.77638     -112698.86      195.24488      198.28747      605.49033    
     27100  -113305.38      631.13996     -112674.24      195.22504      198.2718       605.75706    
     27200  -113285.37      633.68248     -112651.69      195.20118      198.25657      606.0238     
     27300  -113256.58      630.67847     -112625.9       195.17914      198.2439       606.29053    
     27400  -113223.99      629.76991     -112594.22      195.15637      198.2305       606.55727    
     27500  -113189.85      632.85378     -112556.99      195.13687      198.21849      606.82401    
     27600  -113152.48      631.79558     -112520.69      195.11936      198.20673      607.09074    
     27700  -113124.81      632.22041     -112492.59      195.09812      198.19192      607.35748    
     27800  -113100.35      632.48853     -112467.86      195.07773      198.17793      607.62421    
     27900  -113070.05      626.60767     -112443.44      195.05688      198.16392      607.89095    
     28000  -113045.3       630.53865     -112414.76      195.03349      198.14889      608.15768    
     28100  -113017.03      640.99368     -112376.03      195.01392      198.13717      608.42442    
     28200  -112971.96      631.26446     -112340.7       194.99301      198.12514      608.69116    
     28300  -112944.93      631.36761     -112313.56      194.97183      198.11373      608.95789    
     28400  -112921.26      632.94531     -112288.32      194.9513       198.10247      609.22463    
     28500  -112891.01      630.55108     -112260.46      194.92846      198.08911      609.49136    
     28600  -112857.64      628.16238     -112229.47      194.90974      198.07722      609.7581     
     28700  -112825.51      628.73734     -112196.77      194.88941      198.06327      610.02484    
     28800  -112798.28      632.56853     -112165.71      194.86844      198.0495       610.29157    
     28900  -112765.39      629.35346     -112136.04      194.84952      198.03801      610.55831    
     29000  -112738.75      631.91266     -112106.84      194.82642      198.02381      610.82504    
     29100  -112704.91      627.53654     -112077.38      194.80798      198.01146      611.09178    
     29200  -112674.49      631.35401     -112043.14      194.7898       197.99914      611.35851    
     29300  -112634.7       628.03401     -112006.67      194.7672       197.98452      611.62525    
     29400  -112606.81      632.50536     -111974.31      194.74985      197.97302      611.89199    
     29500  -112582.56      631.83211     -111950.72      194.72869      197.95876      612.15872    
     29600  -112556.46      628.75363     -111927.71      194.70862      197.94445      612.42546    
     29700  -112524.86      630.75981     -111894.1       194.6955       197.93323      612.69219    
     29800  -112484.97      628.77309     -111856.19      194.67722      197.91712      612.95893    
     29900  -112455.73      633.21963     -111822.51      194.6603       197.90062      613.22567    
     30000  -112422.51      631.79821     -111790.72      194.6448       197.88578      613.4924     
     30100  -112387.8       626.96827     -111760.83      194.62258      197.86805      613.75914    
     30200  -112363.34      628.004       -111735.34      194.60425      197.85131      614.02587    
     30300  -112329.41      620.89025     -111708.51      194.58983      197.83559      614.29261    
     30400  -112300.97      631.72427     -111669.25      194.57229      197.8174       614.55934    
     30500  -112261.14      629.08281     -111632.06      194.55973      197.80323      614.82608    
     30600  -112226.24      626.76569     -111599.47      194.5429       197.7893       615.09282    
     30700  -112201.56      632.63075     -111568.93      194.5194       197.77484      615.35955    
     30800  -112170.55      629.38771     -111541.17      194.4989       197.76585      615.62629    
     30900  -112140.7       624.72569     -111515.97      194.4745       197.75698      615.89302    
     31000  -112107.46      624.63252     -111482.83      194.45082      197.7498       616.15976    
     31100  -112075.51      634.84778     -111440.66      194.43232      197.74407      616.4265     
     31200  -112039.05      632.48184     -111406.57      194.41116      197.73464      616.69323    
     31300  -112011.2       634.32003     -111376.88      194.39039      197.72311      616.95997    
     31400  -111978.41      627.64006     -111350.77      194.37226      197.71205      617.2267     
     31500  -111946.68      622.18797     -111324.49      194.35248      197.70007      617.49344    
     31600  -111915.34      628.25394     -111287.09      194.33237      197.68693      617.76017    
     31700  -111876.66      631.19759     -111245.46      194.31638      197.67528      618.02691    
     31800  -111846.6       634.59976     -111212         194.29715      197.66125      618.29365    
     31900  -111815.69      633.32593     -111182.36      194.27632      197.64494      618.56038    
     32000  -111783.17      626.38559     -111156.79      194.26286      197.63067      618.82712    
     32100  -111757.1       626.26233     -111130.84      194.24858      197.61355      619.09385    
     32200  -111721.47      629.44719     -111092.02      194.23377      197.59461      619.36059    
     32300  -111681.09      629.91967     -111051.18      194.22372      197.57869      619.62732    
     32400  -111656.18      638.00091     -111018.18      194.20781      197.56076      619.89406    
     32500  -111617.49      629.73866     -110987.75      194.18919      197.54429      620.1608     
     32600  -111585.18      625.48485     -110959.7       194.17319      197.5315       620.42753    
     32700  -111562.75      631.8763      -110930.87      194.15294      197.51699      620.69427    
     32800  -111517.29      624.29654     -110892.99      194.13324      197.50266      620.961      
     32900  -111484.24      632.25017     -110851.98      194.11856      197.49157      621.22774    
     33000  -111453.81      634.89598     -110818.92      194.0996       197.47866      621.49448    
     33100  -111422.66      631.573       -110791.09      194.0809       197.46665      621.76121    
     33200  -111397.8       631.52849     -110766.27      194.06427      197.45784      622.02795    
     33300  -111363.49      629.46232     -110734.03      194.04112      197.44713      622.29468    
     33400  -111316.17      628.89891     -110687.27      194.02024      197.4389       622.56142    
     33500  -111286.37      635.71268     -110650.66      194.00209      197.43172      622.82815    
     33600  -111249.01      630.26009     -110618.75      193.97817      197.4196       623.09489    
     33700  -111223.13      630.68796     -110592.44      193.95887      197.40856      623.36163    
     33800  -111194.26      629.90913     -110564.35      193.94262      197.39704      623.62836    
     33900  -111159.05      629.40445     -110529.65      193.92414      197.38228      623.8951     
     34000  -111121.95      637.34262     -110484.61      193.90828      197.36855      624.16183    
     34100  -111083.09      632.49102     -110450.6       193.89276      197.35467      624.42857    
     34200  -111055.27      631.72797     -110423.54      193.87367      197.339        624.69531    
     34300  -111029.41      633.49829     -110395.91      193.85608      197.3241       624.96204    
     34400  -110992.06      630.59043     -110361.47      193.83954      197.30945      625.22878    
     34500  -110960.4       634.88485     -110325.51      193.82107      197.29432      625.49551    
     34600  -110918.55      627.18808     -110291.36      193.80253      197.28076      625.76225    
     34700  -110890.4       633.63885     -110256.76      193.78569      197.26837      626.02898    
     34800  -110858.62      636.71454     -110221.91      193.76746      197.2545       626.29572    
     34900  -110817.36      631.16541     -110186.19      193.75062      197.24039      626.56246    
     35000  -110781.72      634.02062     -110147.7       193.73562      197.22649      626.82919    
     35100  -110749.29      636.70767     -110112.58      193.718        197.21095      627.09593    
     35200  -110720.43      634.02464     -110086.4       193.70202      197.19701      627.36266    
     35300  -110684.09      625.33874     -110058.75      193.68582      197.18396      627.6294     
     35400  -110646.59      623.59216     -110023         193.66781      197.17022      627.89614    
     35500  -110615.25      630.57113     -109984.68      193.64881      197.15645      628.16287    
     35600  -110582.78      632.4569      -109950.32      193.62889      197.1409       628.42961    
     35700  -110551.63      634.74036     -109916.89      193.61062      197.12582      628.69634    
     35800  -110511.61      628.73878     -109882.87      193.59476      197.11276      628.96308    
     35900  -110475.92      630.63864     -109845.29      193.57982      197.09983      629.22981    
     36000  -110436.93      633.35426     -109803.58      193.56309      197.08531      629.49655    
     36100  -110403.27      633.75553     -109769.52      193.54666      197.07087      629.76329    
     36200  -110372.12      626.31805     -109745.81      193.52809      197.05717      630.03002    
     36300  -110343.81      629.88644     -109713.93      193.50579      197.04268      630.29676    
     36400  -110307.69      630.04486     -109677.65      193.48718      197.03058      630.56349    
     36500  -110270.71      632.57732     -109638.14      193.46921      197.01889      630.83023    
     36600  -110232.95      635.34473     -109597.6       193.44779      197.00408      631.09697    
     36700  -110194.56      635.3895      -109559.17      193.43144      196.99231      631.3637     
     36800  -110169.92      638.33536     -109531.59      193.41335      196.97949      631.63044    
     36900  -110135.97      629.56569     -109506.41      193.39204      196.96428      631.89717    
     37000  -110106.42      631.28249     -109475.14      193.37589      196.95267      632.16391    
     37100  -110065.18      628.56197     -109436.62      193.35643      196.93754      632.43064    
     37200  -110025.17      630.82312     -109394.35      193.33681      196.92063      632.69738    
     37300  -109988.01      629.70126     -109358.31      193.32209      196.90583      632.96412    
     37400  -109958.4       632.5476      -109325.86      193.30407      196.88857      633.23085    
     37500  -109928.6       634.431       -109294.17      193.28656      196.87164      633.49759    
     37600  -109897         635.68087     -109261.32      193.27233      196.85667      633.76432    
     37700  -109859.66      632.98411     -109226.67      193.25544      196.84003      634.03106    
     37800  -109820.56      629.4209      -109191.14      193.24         196.82256      634.2978     
     37900  -109779.73      626.96453     -109152.76      193.22518      196.80569      634.56453    
     38000  -109747.54      635.71507     -109111.82      193.20754      196.78933      634.83127    
     38100  -109706.74      635.82084     -109070.92      193.18831      196.77413      635.098      
     38200  -109676.52      635.35912     -109041.16      193.17038      196.76095      635.36474    
     38300  -109640.81      623.49244     -109017.32      193.15178      196.74788      635.63147    
     38400  -109610.63      626.22865     -108984.4       193.13184      196.73315      635.89821    
     38500  -109580.85      633.51834     -108947.33      193.11533      196.71995      636.16495    
     38600  -109540.37      635.10045     -108905.27      193.09716      196.7058       636.43168    
     38700  -109504.65      635.68604     -108868.97      193.07693      196.68984      636.69842    
     38800  -109476.29      631.40909     -108844.88      193.05984      196.67558      636.96515    
     38900  -109440.76      627.38602     -108813.38      193.04259      196.66016      637.23189    
     39000  -109397.47      624.06185     -108773.41      193.02399      196.64499      637.49863    
     39100  -109362.41      630.24891     -108732.16      193.00436      196.63125      637.76536    
     39200  -109331.05      636.66958     -108694.38      192.98279      196.61808      638.0321     
     39300  -109292.36      631.43507     -108660.92      192.96132      196.60459      638.29883    
     39400  -109267.51      631.83993     -108635.67      192.94109      196.59063      638.56557    
     39500  -109226.04      620.60745     -108605.43      192.92124      196.5765       638.8323     
     39600  -109187.41      624.29502     -108563.11      192.90269      196.5614       639.09904    
     39700  -109149.71      628.29065     -108521.42      192.8867       196.54665      639.36578    
     39800  -109111.53      628.10463     -108483.42      192.86864      196.53123      639.63251    
     39900  -109076.13      628.09891     -108448.03      192.84999      196.51761      639.89925    
     40000  -109047.92      630.49857     -108417.42      192.83027      196.50417      640.16598    
     40100  -109017.45      627.97183     -108389.48      192.80879      196.48914      640.43272    
     40200  -108977.63      625.01318     -108352.62      192.78869      196.47347      640.69946    
     40300  -108942.03      635.41061     -108306.62      192.77018      196.45649      640.96619    
     40400  -108901.46      631.56726     -108269.89      192.75225      196.43734      641.23293    
     40500  -108868.19      631.01678     -108237.17      192.73605      196.41852      641.49966    
     40600  -108835.45      629.10967     -108206.34      192.71919      196.40091      641.7664     
     40700  -108802.04      628.44167     -108173.6       192.70093      196.38426      642.03313    
     40800  -108762.34      631.33851     -108131         192.68209      196.3679       642.29987    
     40900  -108725.21      636.56385     -108088.65      192.66238      196.35063      642.56661    
     41000  -108686.27      632.43713     -108053.84      192.64203      196.3336       642.83334    
     41100  -108657.46      632.58219     -108024.87      192.62165      196.31687      643.10008    
     41200  -108624.73      628.91852     -107995.81      192.60166      196.30136      643.36681    
     41300  -108586.83      627.81077     -107959.02      192.58236      196.28711      643.63355    
     41400  -108546.34      634.62224     -107911.72      192.56301      196.27275      643.90029    
     41500  -108505.63      632.81474     -107872.82      192.54466      196.25878      644.16702    
     41600  -108472.87      630.49595     -107842.38      192.52552      196.24431      644.43376    
     41700  -108444.22      631.1011      -107813.12      192.50397      196.22811      644.70049    
     41800  -108408.14      629.81134     -107778.33      192.48374      196.21293      644.96723    
     41900  -108369.51      636.38803     -107733.12      192.45849      196.19569      645.23396    
     42000  -108328.57      637.21766     -107691.36      192.43351      196.17856      645.5007     
     42100  -108292.9       632.67013     -107660.23      192.41653      196.16628      645.76744    
     42200  -108261.55      631.57834     -107629.97      192.39631      196.15235      646.03417    
     42300  -108228.43      632.44645     -107595.98      192.37396      196.13825      646.30091    
     42400  -108188.69      631.23346     -107557.46      192.35598      196.12723      646.56764    
     42500  -108148.37      637.28933     -107511.08      192.33385      196.11127      646.83438    
     42600  -108109.83      634.90255     -107474.93      192.3126       196.09427      647.10112    
     42700  -108078.71      632.42218     -107446.28      192.29504      196.07949      647.36785    
     42800  -108044.29      630.72529     -107413.57      192.27317      196.06224      647.63459    
     42900  -108000.56      624.69339     -107375.86      192.25085      196.04412      647.90132    
     43000  -107967.77      629.99325     -107337.78      192.23358      196.02849      648.16806    
     43100  -107933.56      633.74855     -107299.81      192.21313      196.00992      648.43479    
     43200  -107897.48      633.67768     -107263.81      192.19299      195.99064      648.70153    
     43300  -107860.16      627.02852     -107233.13      192.17666      195.97319      648.96827    
     43400  -107828.51      627.84243     -107200.67      192.15782      195.95315      649.235      
     43500  -107787.39      627.40015     -107159.99      192.13876      195.93237      649.50174    
     43600  -107752.18      635.95032     -107116.23      192.12287      195.91386      649.76847    
     43700  -107712.54      633.57039     -107078.97      192.10248      195.8944       650.03521    
     43800  -107677.68      629.1141      -107048.57      192.08262      195.87762      650.30195    
     43900  -107649.66      627.58745     -107022.07      192.06431      195.86271      650.56868    
     44000  -107614.21      630.36885     -106983.84      192.04471      195.84763      650.83542    
     44100  -107572.24      631.29187     -106940.95      192.02282      195.83277      651.10215    
     44200  -107533.97      634.16287     -106899.81      192.00001      195.81848      651.36889    
     44300  -107493.74      630.33394     -106863.4       191.97767      195.80542      651.63562    
     44400  -107459.57      627.30621     -106832.27      191.95352      195.79072      651.90236    
     44500  -107428.98      625.24205     -106803.74      191.93211      195.77592      652.1691     
     44600  -107390.09      626.43685     -106763.65      191.91303      195.76189      652.43583    
     44700  -107352.77      634.46315     -106718.3       191.89162      195.74661      652.70257    
     44800  -107308.82      628.61886     -106680.2       191.87022      195.73159      652.9693     
     44900  -107275.74      632.1088      -106643.63      191.85045      195.71662      653.23604    
     45000  -107245.31      634.83078     -106610.48      191.82887      195.69947      653.50277    
     45100  -107206.84      625.00401     -106581.84      191.8062       195.68149      653.76951    
     45200  -107168.51      623.3091      -106545.2       191.78607      195.66463      654.03625    
     45300  -107129.37      632.58213     -106496.79      191.7652       195.64716      654.30298    
     45400  -107095.02      636.76942     -106458.25      191.74566      195.62874      654.56972    
     45500  -107055.75      630.36777     -106425.39      191.72654      195.61073      654.83645    
     45600  -107020.87      626.64025     -106394.23      191.7063       195.59283      655.10319    
     45700  -106988.86      629.5209      -106359.34      191.68794      195.57651      655.36993    
     45800  -106945.85      632.17854     -106313.67      191.66828      195.55898      655.63666    
     45900  -106907.78      637.64577     -106270.13      191.64711      195.54111      655.9034     
     46000  -106865.71      628.01573     -106237.7       191.62729      195.52486      656.17013    
     46100  -106839.77      632.34675     -106207.43      191.60435      195.5076       656.43687    
     46200  -106798.61      626.4514      -106172.16      191.58119      195.49048      656.7036     
     46300  -106764.79      632.169       -106132.62      191.56069      195.47487      656.97034    
     46400  -106725.34      632.73587     -106092.6       191.53978      195.45878      657.23708    
     46500  -106683.66      634.9455      -106048.71      191.51882      195.44158      657.50381    
     46600  -106644.47      636.68281     -106007.79      191.50001      195.42423      657.77055    
     46700  -106616.7       636.88019     -105979.82      191.48005      195.40562      658.03728    
     46800  -106580.55      631.06723     -105949.48      191.45938      195.38664      658.30402    
     46900  -106543.57      628.64801     -105914.92      191.44026      195.36829      658.57076    
     47000  -106507.58      630.90683     -105876.67      191.42001      195.34969      658.83749    
     47100  -106470.87      638.88422     -105831.99      191.39961      195.33158      659.10423    
     47200  -106429.16      640.01468     -105789.15      191.38023      195.3137       659.37096    
     47300  -106391.66      632.01631     -105759.64      191.35923      195.29531      659.6377     
     47400  -106356.63      628.85195     -105727.77      191.33692      195.27729      659.90443    
     47500  -106322.37      630.14059     -105692.23      191.31508      195.26098      660.17117    
     47600  -106279.9       627.46802     -105652.43      191.29322      195.24584      660.43791    
     47700  -106244.44      636.25487     -105608.18      191.26968      195.22976      660.70464    
     47800  -106193.73      625.84995     -105567.88      191.24894      195.21523      660.97138    
     47900  -106171.36      630.4579      -105540.91      191.2286       195.20143      661.23811    
     48000  -106134.94      626.80719     -105508.13      191.20334      195.18502      661.50485    
     48100  -106094.95      627.75417     -105467.19      191.1815       195.17128      661.77159    
     48200  -106058.95      636.03961     -105422.91      191.15946      195.15737      662.03832    
     48300  -106018.72      637.31631     -105381.4       191.13541      195.14162      662.30506    
     48400  -105986.58      635.49354     -105351.08      191.11659      195.12897      662.57179    
     48500  -105955.12      632.57959     -105322.54      191.0952       195.11439      662.83853    
     48600  -105917.46      634.98692     -105282.47      191.0706       195.0975       663.10526    
     48700  -105882.89      643.54222     -105239.35      191.05098      195.08235      663.372      
     48800  -105836.76      635.78722     -105200.97      191.0287       195.06464      663.63874    
     48900  -105802.49      630.58848     -105171.9       191.00517      195.04534      663.90547    
     49000  -105769.53      631.30571     -105138.22      190.98674      195.02901      664.17221    
     49100  -105729.12      632.15299     -105096.97      190.967        195.01153      664.43894    
     49200  -105685.96      630.57988     -105055.38      190.94571      194.99404      664.70568    
     49300  -105651.05      634.13672     -105016.91      190.92783      194.97892      664.97242    
     49400  -105610.78      630.26141     -104980.52      190.90783      194.96207      665.23915    
     49500  -105580.21      634.78526     -104945.42      190.88605      194.9445       665.50589    
     49600  -105539.54      627.6273      -104911.91      190.8649       194.92814      665.77262    
     49700  -105504.14      620.53802     -104883.6       190.84182      194.91107      666.03936    
     49800  -105475.72      629.94628     -104845.78      190.81945      194.89397      666.30609    
     49900  -105426.31      630.04868     -104796.26      190.80003      194.87813      666.57283    
     50000  -105387.86      632.48886     -104755.37      190.78098      194.86234      666.83957    
     50100  -105349.94      631.69817     -104718.24      190.76064      194.84574      667.1063     
     50200  -105317.4       633.38982     -104684.01      190.73995      194.82897      667.37304    
     50300  -105280.6       628.38539     -104652.21      190.71807      194.81275      667.63977    
     50400  -105242.6       625.94156     -104616.66      190.69496      194.79651      667.90651    
     50500  -105199.56      631.31661     -104568.25      190.67284      194.7808       668.17325    
     50600  -105161.47      637.85338     -104523.62      190.65215      194.76456      668.43998    
     50700  -105120.16      631.93939     -104488.23      190.63223      194.74868      668.70672    
     50800  -105088.95      631.50406     -104457.45      190.61049      194.73193      668.97345    
     50900  -105048.72      627.23776     -104421.48      190.58905      194.71527      669.24019    
     51000  -105016.35      634.39891     -104381.95      190.569        194.69936      669.50692    
     51100  -104970.38      632.56434     -104337.82      190.54842      194.68318      669.77366    
     51200  -104935.74      646.57936     -104289.16      190.52714      194.667        670.0404     
     51300  -104898.57      641.20842     -104257.37      190.5068       194.65246      670.30713    
     51400  -104858.5       632.18469     -104226.32      190.48418      194.63788      670.57387    
     51500  -104824.72      631.60678     -104193.11      190.45957      194.62237      670.8406     
     51600  -104788.23      629.4103      -104158.82      190.43736      194.6079       671.10734    
     51700  -104753.94      631.99774     -104121.94      190.41417      194.59261      671.37408    
     51800  -104717.29      632.46021     -104084.83      190.39023      194.57602      671.64081    
     51900  -104679.53      632.4442      -104047.09      190.37026      194.5614       671.90755    
     52000  -104632.4       627.07268     -104005.32      190.34991      194.54891      672.17428    
     52100  -104594.31      632.41489     -103961.9       190.32477      194.53588      672.44102    
     52200  -104555.52      631.87589     -103923.64      190.30009      194.52402      672.70775    
     52300  -104524.4       631.54336     -103892.86      190.27751      194.51236      672.97449    
     52400  -104485.81      627.66328     -103858.15      190.25369      194.49759      673.24123    
     52500  -104452.65      634.29857     -103818.35      190.23155      194.48155      673.50796    
     52600  -104399.87      625.37197     -103774.5       190.21211      194.46679      673.7747     
     52700  -104363.46      640.09387     -103723.37      190.18992      194.45116      674.04143    
     52800  -104324.95      638.71122     -103686.24      190.16594      194.43426      674.30817    
     52900  -104290.86      636.76771     -103654.09      190.14769      194.42053      674.57491    
     53000  -104254.35      632.92412     -103621.43      190.12785      194.40472      674.84164    
     53100  -104218.86      630.33961     -103588.52      190.10622      194.38677      675.10838    
     53200  -104180.55      627.31711     -103553.23      190.08808      194.37088      675.37511    
     53300  -104150.28      634.36975     -103515.91      190.06622      194.35218      675.64185    
     53400  -104104.5       629.34331     -103475.16      190.04319      194.33466      675.90858    
     53500  -104062.65      633.58086     -103429.07      190.02261      194.32148      676.17532    
     53600  -104031.17      642.58383     -103388.59      189.99954      194.30713      676.44206    
     53700  -103986.57      628.85161     -103357.72      189.97679      194.29247      676.70879    
     53800  -103947.17      625.64819     -103321.52      189.95845      194.28074      676.97553    
     53900  -103913.32      629.8608      -103283.46      189.93709      194.26674      677.24226    
     54000  -103876.23      631.18864     -103245.04      189.91642      194.25252      677.509      
     54100  -103834.85      625.04079     -103209.8       189.89746      194.23933      677.77574    
     54200  -103798.88      622.66302     -103176.22      189.87467      194.22339      678.04247    
     54300  -103763.9       628.43739     -103135.46      189.85127      194.20702      678.30921    
     54400  -103717.82      631.40202     -103086.42      189.83057      194.1922       678.57594    
     54500  -103681.55      639.07789     -103042.47      189.80736      194.17601      678.84268    
     54600  -103645.69      638.38018     -103007.31      189.78698      194.16174      679.10941    
     54700  -103608.28      636.3785      -102971.9       189.7686       194.14917      679.37615    
     54800  -103569.27      632.12751     -102937.14      189.74685      194.13408      679.64289    
     54900  -103531.07      630.47822     -102900.59      189.7274       194.11974      679.90962    
     55000  -103493.1       631.02527     -102862.08      189.70909      194.10582      680.17636    
     55100  -103456.22      627.88157     -102828.34      189.68779      194.09078      680.44309    
     55200  -103423.67      628.91554     -102794.76      189.6667       194.07663      680.70983    
     55300  -103378.78      629.11249     -102749.67      189.64575      194.06102      680.97657    
     55400  -103335.28      633.43943     -102701.84      189.62511      194.04462      681.2433     
     55500  -103300.11      638.13223     -102661.98      189.60577      194.02927      681.51004    
     55600  -103259.49      632.26628     -102627.22      189.58565      194.01318      681.77677    
     55700  -103229.42      637.35878     -102592.06      189.56476      193.99712      682.04351    
     55800  -103188.48      634.66614     -102553.81      189.54603      193.9828       682.31024    
     55900  -103146.63      630.47587     -102516.15      189.52712      193.96682      682.57698    
     56000  -103110.53      626.96872     -102483.56      189.50672      193.94952      682.84372    
     56100  -103078.89      630.94381     -102447.94      189.48662      193.93346      683.11045    
     56200  -103036.13      631.69845     -102404.44      189.46746      193.9186       683.37719    
     56300  -102994.06      633.04077     -102361.01      189.44621      193.90274      683.64392    
     56400  -102949.02      630.80958     -102318.21      189.42487      193.88607      683.91066    
     56500  -102913.5       632.49772     -102281.01      189.40623      193.87126      684.17739    
     56600  -102877.69      630.14395     -102247.55      189.3882       193.85682      684.44413    
     56700  -102842.24      633.17099     -102209.07      189.3692       193.8407       684.71087    
     56800  -102800.21      632.0172      -102168.19      189.35201      193.82509      684.9776     
     56900  -102758.13      628.95583     -102129.17      189.33295      193.80885      685.24434    
     57000  -102728.74      628.71995     -102100.02      189.31129      193.79095      685.51107    
     57100  -102689.35      630.6029      -102058.75      189.29349      193.77531      685.77781    
     57200  -102639.94      628.98881     -102010.95      189.27521      193.75806      686.04455    
     57300  -102600.55      635.59156     -101964.96      189.25711      193.74113      686.31128    
     57400  -102562.89      634.20123     -101928.69      189.2408       193.726        686.57802    
     57500  -102528.21      630.95673     -101897.25      189.2201       193.70852      686.84475    
     57600  -102487.44      631.77941     -101855.66      189.19948      193.69086      687.11149    
     57700  -102441.32      629.17939     -101812.14      189.18256      193.67535      687.37822    
     57800  -102405.53      632.79848     -101772.73      189.16344      193.65921      687.64496    
     57900  -102371.62      632.30232     -101739.32      189.14373      193.64387      687.9117     
     58000  -102334.06      633.03907     -101701.02      189.12571      193.63159      688.17843    
     58100  -102288.51      629.35681     -101659.15      189.10372      193.61725      688.44517    
     58200  -102244.83      626.45623     -101618.37      189.08298      193.60356      688.7119     
     58300  -102218.19      630.34725     -101587.84      189.06519      193.59082      688.97864    
     58400  -102172.39      624.67836     -101547.71      189.04419      193.57531      689.24538    
     58500  -102138.58      639.17542     -101499.4       189.02478      193.56066      689.51211    
     58600  -102082.14      629.65385     -101452.49      189.00671      193.54683      689.77885    
     58700  -102047.94      630.43145     -101417.5       188.98575      193.53058      690.04558    
     58800  -102016.28      634.35303     -101381.93      188.96641      193.51592      690.31232    
     58900  -101969.4       627.3426      -101342.06      188.94764      193.50082      690.57905    
     59000  -101938.03      633.2804      -101304.75      188.92791      193.4842       690.84579    
     59100  -101893.86      627.82041     -101266.04      188.9093       193.46777      691.11253    
     59200  -101856.54      630.52302     -101226.02      188.89094      193.45201      691.37926    
     59300  -101822.51      630.71665     -101191.79      188.8707       193.43545      691.646      
     59400  -101779.64      627.18675     -101152.46      188.85089      193.41986      691.91273    
     59500  -101736.63      630.42719     -101106.2       188.8314       193.40493      692.17947    
     59600  -101688.26      626.71735     -101061.54      188.81067      193.38792      692.44621    
     59700  -101658.53      638.14401     -101020.39      188.79292      193.37251      692.71294    
     59800  -101622.35      632.88355     -100989.47      188.77601      193.35674      692.97968    
     59900  -101573.1       626.45114     -100946.65      188.75717      193.3387       693.24641    
     60000  -101535.94      636.5332      -100899.41      188.74083      193.32302      693.51315    
     60100  -101491.25      639.21153     -100852.04      188.72188      193.30735      693.77988    
     60200  -101448.41      632.13557     -100816.28      188.69953      193.29057      694.04662    
     60300  -101410.9       632.43625     -100778.47      188.68174      193.27688      694.31336    
     60400  -101372.29      634.305       -100737.99      188.66329      193.26         694.58009    
     60500  -101332.38      633.03689     -100699.34      188.64457      193.24094      694.84683    
     60600  -101288.66      629.68568     -100658.97      188.63001      193.22417      695.11356    
     60700  -101247.91      630.64934     -100617.26      188.61265      193.20479      695.3803     
     60800  -101207.72      633.66424     -100574.05      188.59504      193.1866       695.64704    
     60900  -101167.12      635.60202     -100531.52      188.57812      193.17134      695.91377    
     61000  -101121.03      629.20044     -100491.83      188.5574       193.15461      696.18051    
     61100  -101081         630.729       -100450.27      188.53628      193.13919      696.44724    
     61200  -101045.48      637.43733     -100408.04      188.51628      193.12447      696.71398    
     61300  -101002.54      634.33903     -100368.2       188.4964       193.10832      696.98071    
     61400  -100961.65      634.75476     -100326.89      188.47742      193.09174      697.24745    
     61500  -100917.72      633.49446     -100284.23      188.45966      193.07547      697.51419    
     61600  -100873.07      630.18704     -100242.88      188.44102      193.05996      697.78092    
     61700  -100833.9       632.7694      -100201.13      188.4211       193.04496      698.04766    
     61800  -100789.05      630.74456     -100158.31      188.4036       193.03162      698.31439    
     61900  -100753.63      636.52006     -100117.11      188.3843       193.01676      698.58113    
     62000  -100706.28      631.94806     -100074.33      188.36304      193.00145      698.84787    
     62100  -100666.97      634.7178      -100032.25      188.34334      192.98768      699.1146     
     62200  -100630.92      639.8808      -99991.042      188.32107      192.97166      699.38134    
     62300  -100580.82      632.6505      -99948.172      188.30043      192.95656      699.64807    
     62400  -100542.16      636.31803     -99905.839      188.2813       192.9423       699.91481    
     62500  -100497.13      633.56404     -99863.564      188.26234      192.92652      700.18154    
     62600  -100452.98      633.24791     -99819.735      188.24615      192.91179      700.44828    
     62700  -100412.83      635.20577     -99777.623      188.22752      192.89528      700.71502    
     62800  -100364.9       631.52012     -99733.382      188.20848      192.87896      700.98175    
     62900  -100322.87      633.06729     -99689.8        188.18876      192.86233      701.24849    
     63000  -100283.59      636.72223     -99646.87       188.168        192.84509      701.51522    
     63100  -100239.17      635.14969     -99604.017      188.14908      192.82956      701.78196    
     63200  -100193.41      631.95502     -99561.453      188.12879      192.81184      702.0487     
     63300  -100158.47      641.32237     -99517.146      188.11082      192.79404      702.31543    
     63400  -100106.49      633.685       -99472.804      188.09532      192.77564      702.58217    
     63500  -100060.41      632.15424     -99428.257      188.07885      192.75515      702.8489     
     63600  -100018.56      635.2317      -99383.332      188.06363      192.73611      703.11564    
     63700  -99977.037      636.00019     -99341.036      188.04771      192.71861      703.38237    
     63800  -99925.558      627.86716     -99297.691      188.02914      192.70079      703.64911    
     63900  -99884.232      630.76233     -99253.47       188.01071      192.68329      703.91585    
     64000  -99843.455      634.23733     -99209.217      187.99111      192.6639       704.18258    
     64100  -99795.964      631.61698     -99164.347      187.97276      192.64453      704.44932    
     64200  -99752.75       635.38081     -99117.369      187.95612      192.62686      704.71605    
     64300  -99705.013      634.65        -99070.363      187.93779      192.60931      704.98279    
     64400  -99658.781      635.33649     -99023.445      187.9209       192.5942       705.24953    
     64500  -99617.072      637.78255     -98979.29       187.90248      192.57818      705.51626    
     64600  -99567.088      632.33916     -98934.749      187.88312      192.56129      705.783      
     64700  -99515.628      626.22002     -98889.407      187.86456      192.5453       706.04973    
     64800  -99474.976      631.63146     -98843.344      187.84334      192.52764      706.31647    
     64900  -99432.934      636.61759     -98796.316      187.82441      192.51181      706.5832     
     65000  -99385.888      635.88996     -98749.998      187.80611      192.49621      706.84994    
     65100  -99340.099      637.50465     -98702.594      187.78449      192.47688      707.11668    
     65200  -99291.476      635.37594     -98656.1        187.76731      192.4598       707.38341    
     65300  -99244.226      633.94178     -98610.284      187.7496       192.44197      707.65015    
     65400  -99201.591      638.25693     -98563.334      187.73052      192.42354      707.91688    
     65500  -99154.546      637.77122     -98516.775      187.71342      192.40755      708.18362    
     65600  -99103.952      634.7397      -98469.213      187.69276      192.38927      708.45036    
     65700  -99053.86       632.80322     -98421.056      187.6742       192.37415      708.71709    
     65800  -99009.034      636.27891     -98372.756      187.65495      192.35938      708.98383    
     65900  -98964.556      640.44056     -98324.116      187.63526      192.34459      709.25056    
     66000  -98911.312      635.58104     -98275.731      187.61776      192.33045      709.5173     
     66100  -98857.137      631.10454     -98226.032      187.59736      192.31259      709.78403    
     66200  -98815.229      637.00171     -98178.227      187.57865      192.29481      710.05077    
     66300  -98761.646      631.1162      -98130.53       187.56109      192.27751      710.31751    
     66400  -98716.186      634.42827     -98081.757      187.54167      192.2587       710.58424    
     66500  -98669.706      637.05848     -98032.647      187.52363      192.24147      710.85098    
     66600  -98615.496      631.48423     -97984.012      187.50525      192.22331      711.11771    
     66700  -98569.902      637.11634     -97932.786      187.48667      192.20417      711.38445    
     66800  -98513.888      630.76241     -97883.126      187.46984      192.18601      711.65119    
     66900  -98463.706      630.5361      -97833.17       187.45167      192.16801      711.91792    
     67000  -98413.874      631.49674     -97782.377      187.4319       192.15019      712.18466    
     67100  -98375.151      643.61392     -97731.537      187.4137       192.13453      712.45139    
     67200  -98316.114      635.69374     -97680.42       187.39438      192.11767      712.71813    
     67300  -98270.041      639.31266     -97630.728      187.37345      192.09836      712.98486    
     67400  -98214.35       635.32438     -97579.026      187.35666      192.08188      713.2516     
     67500  -98165.704      637.94248     -97527.761      187.337        192.06369      713.51834    
     67600  -98113.504      637.18129     -97476.322      187.3173       192.04607      713.78507    
     67700  -98065.081      640.69419     -97424.387      187.30151      192.03266      714.05181    
     67800  -98012.756      637.61646     -97375.14       187.28084      192.01564      714.31854    
     67900  -97958.521      636.46963     -97322.051      187.26167      191.99881      714.58528    
     68000  -97900.961      632.40142     -97268.559      187.2457       191.98349      714.85202    
     68100  -97853.302      638.32905     -97214.973      187.22401      191.96367      715.11875    
     68200  -97800.167      637.60367     -97162.564      187.20522      191.94758      715.38549    
     68300  -97742.514      632.73614     -97109.778      187.18745      191.93234      715.65222    
     68400  -97693.955      638.48262     -97055.472      187.16587      191.91322      715.91896    
     68500  -97641.539      639.56347     -97001.976      187.14944      191.89795      716.18569    
     68600  -97586.004      637.17744     -96948.826      187.1329       191.88211      716.45243    
     68700  -97537.963      642.62194     -96895.341      187.1131       191.86454      716.71917    
     68800  -97476.89       637.12254     -96839.767      187.09552      191.8501       716.9859     
     68900  -97422.988      637.89262     -96785.095      187.0744       191.83238      717.25264    
     69000  -97368.384      636.66821     -96731.716      187.05394      191.8138       717.51937    
     69100  -97321.266      643.68136     -96677.585      187.03628      191.79655      717.78611    
     69200  -97259.151      638.55467     -96620.596      187.01731      191.77838      718.05284    
     69300  -97204.779      639.16414     -96565.615      186.99947      191.76226      718.31958    
     69400  -97148.945      639.33141     -96509.613      186.98059      191.74609      718.58632    
     69500  -97092.281      638.65266     -96453.629      186.96145      191.72959      718.85305    
     69600  -97037.491      642.02243     -96395.468      186.94377      191.71311      719.11979    
     69700  -96979.712      640.60726     -96339.104      186.92476      191.69424      719.38652    
     69800  -96922.842      640.492       -96282.35       186.90731      191.67684      719.65326    
     69900  -96861.847      636.73549     -96225.111      186.88897      191.65956      719.92       
     70000  -96807.563      639.9668      -96167.597      186.86978      191.64199      720.18673    
     70100  -96745.281      634.93213     -96110.349      186.85275      191.62601      720.45347    
     70200  -96698.789      646.05981     -96052.729      186.83512      191.60896      720.7202     
     70300  -96635.193      639.0855      -95996.108      186.81803      191.59198      720.98694    
     70400  -96575.806      638.85075     -95936.955      186.80082      191.57498      721.25367    
     70500  -96525.367      645.37213     -95879.995      186.78029      191.55562      721.52041    
     70600  -96462.583      640.89477     -95821.688      186.7625       191.53804      721.78715    
     70700  -96404.952      640.35204     -95764.6        186.74462      191.5193       722.05388    
     70800  -96348.231      643.72427     -95704.507      186.72574      191.49926      722.32062    
     70900  -96290.08       645.23472     -95644.845      186.70964      191.4819       722.58735    
     71000  -96228.91       646.37088     -95582.539      186.69082      191.46347      722.85409    
     71100  -96171.016      646.9857      -95524.03       186.67265      191.44641      723.12083    
     71200  -96111.517      646.31297     -95465.204      186.65686      191.43059      723.38756    
     71300  -96049.475      646.10225     -95403.373      186.63808      191.41099      723.6543     
     71400  -95987.683      645.5392      -95342.143      186.62271      191.39439      723.92103    
     71500  -95928.717      647.88242     -95280.835      186.60549      191.37692      724.18777    
     71600  -95865.546      646.48302     -95219.063      186.58536      191.35737      724.4545     
     71700  -95802.076      645.47263     -95156.603      186.57009      191.34201      724.72124    
     71800  -95742.849      647.81054     -95095.038      186.55114      191.32349      724.98798    
     71900  -95681.275      648.39299     -95032.882      186.53286      191.30552      725.25471    
     72000  -95625.599      654.02798     -94971.571      186.51721      191.28945      725.52145    
     72100  -95557.682      648.46168     -94909.22       186.49813      191.26958      725.78818    
     72200  -95495.903      651.902       -94844.001      186.48196      191.25113      726.05492    
     72300  -95429.468      646.38198     -94783.086      186.46594      191.23249      726.32166    
     72400  -95370.666      650.23103     -94720.435      186.44855      191.21279      726.58839    
     72500  -95312.324      654.52908     -94657.795      186.43308      191.19545      726.85513    
     72600  -95250.184      660.22183     -94589.962      186.41511      191.17714      727.12186    
     72700  -95176.125      648.63339     -94527.492      186.39746      191.16011      727.3886     
[...]
     81600  -116396.4       720.29249     -115676.11      186.58239      191.03038      751.12809    
     81700  -116580.83      706.51157     -115874.32      186.6047       191.04897      751.39482    
     81800  -116753.86      694.87207     -116058.99      186.62704      191.06783      751.66156    
     81900  -116914.71      683.85953     -116230.85      186.64929      191.08674      751.92829    
     82000  -117064.21      673.96904     -116390.24      186.67135      191.10568      752.19503    
     82100  -117202.58      665.04557     -116537.53      186.69331      191.12485      752.46177    
     82200  -117328.76      656.2449      -116672.52      186.7153       191.14434      752.7285     
     82300  -117442.18      647.38651     -116794.8       186.73803      191.1644       752.99524    
     82400  -117541.28      638.85846     -116902.42      186.76157      191.18496      753.26197    
     82500  -117627.07      632.77695     -116994.29      186.78499      191.20558      753.52871    
     82600  -117697.52      627.26485     -117070.25      186.80915      191.22685      753.79545    
     82700  -117752.12      623.3358      -117128.78      186.8334       191.24855      754.06218    
     82800  -117791.63      622.84852     -117168.79      186.85666      191.26995      754.32892    
     82900  -117818.33      625.55007     -117192.78      186.87993      191.29192      754.59565    
     83000  -117831.21      625.38314     -117205.83      186.90266      191.31401      754.86239    
     83100  -117831.01      623.24827     -117207.76      186.92519      191.33605      755.12912    
     83200  -117815.84      621.1949      -117194.64      186.94704      191.35751      755.39586    
     83300  -117784.94      621.17932     -117163.76      186.96671      191.37736      755.6626     
     83400  -117735.21      619.23581     -117115.97      186.98644      191.39731      755.92933    
     83500  -117664.32      612.69748     -117051.62      187.00644      191.41716      756.19607    
     83600  -117572.82      604.82825     -116967.99      187.02444      191.43529      756.4628     
     83700  -117466.43      600.0593      -116866.37      187.04088      191.45275      756.72954    
     83800  -117355.22      601.1804      -116754.04      187.05246      191.46709      756.99628    
     83900  -117259.61      619.04126     -116640.57      187.06269      191.48201      757.26301    
     84000  -117189.04      644.18342     -116544.85      187.06956      191.49598      757.52975    
     84100  -117156.33      664.00765     -116492.32      187.07024      191.50523      757.79648    
     84200  -117151.68      649.30884     -116502.37      187.06298      191.50853      758.06322    
     84300  -117143.14      605.76976     -116537.37      187.06598      191.52153      758.32995    
     84400  -117154.66      621.03504     -116533.63      187.07449      191.53389      758.59669    
     84500  -117133.63      624.70756     -116508.92      187.08006      191.53836      758.86343    
     84600  -117110.31      633.25233     -116477.06      187.09791      191.54809      759.13016    
     84700  -117077.9       631.59812     -116446.3       187.11793      191.55567      759.3969     
     84800  -117055.23      637.06572     -116418.16      187.14323      191.56638      759.66363    
     84900  -117036.83      633.80301     -116403.03      187.16709      191.5776       759.93037    
     85000  -117038.8       637.47721     -116401.32      187.19085      191.58724      760.19711    
     85100  -117021.91      618.91702     -116402.99      187.21918      191.60206      760.46384    
     85200  -117025.63      633.73117     -116391.9       187.24878      191.61753      760.73058    
     85300  -117008.81      626.87274     -116381.94      187.27729      191.62869      760.99731    
     85400  -116999.94      630.05563     -116369.89      187.30579      191.64226      761.26405    
     85500  -117012.73      644.72985     -116368         187.33344      191.6529       761.53078    
     85600  -117014.46      627.82316     -116386.64      187.35937      191.66234      761.79752    
     85700  -117021.44      622.30456     -116399.14      187.38858      191.67435      762.06426    
     85800  -117019.3       626.45938     -116392.84      187.40874      191.68736      762.33099    
     85900  -117018.78      641.28986     -116377.49      187.42535      191.69961      762.59773    
     86000  -117033.04      646.27937     -116386.76      187.44072      191.7105       762.86446    
     86100  -117035.19      618.69013     -116416.5       187.45985      191.73189      763.1312     
     86200  -117042.4       611.44814     -116430.95      187.47873      191.75664      763.39794    
     86300  -117046.87      628.00748     -116418.86      187.49626      191.77807      763.66467    
     86400  -117050.19      647.79464     -116402.4       187.51669      191.80296      763.93141    
     86500  -117044.04      633.1307      -116410.91      187.53557      191.82292      764.19814    
     86600  -117044.18      619.27455     -116424.91      187.56599      191.85294      764.46488    
     86700  -117042.21      624.56948     -116417.64      187.59124      191.87966      764.73161    
     86800  -117032.92      635.45611     -116397.46      187.6168       191.90503      764.99835    
     86900  -117036.72      644.3144      -116392.4       187.64577      191.92908      765.26509    
     87000  -117036.16      630.87024     -116405.29      187.67595      191.95512      765.53182    
     87100  -117025.69      616.54877     -116409.14      187.69965      191.9754       765.79856    
     87200  -117020.93      632.12166     -116388.81      187.72937      191.99747      766.06529    
     87300  -117017.8       645.10227     -116372.7       187.7577       192.01604      766.33203    
     87400  -117027.9       642.05599     -116385.84      187.77871      192.0399       766.59877    
     87500  -117038.85      625.68916     -116413.16      187.80025      192.07081      766.8655     
     87600  -117044.51      616.25166     -116428.26      187.82296      192.1035       767.13224    
     87700  -117044.26      625.56902     -116418.69      187.84347      192.13477      767.39897    
     87800  -117033.36      632.80358     -116400.56      187.86089      192.15955      767.66571    
     87900  -117031.5       643.1382      -116388.37      187.88976      192.19524      767.93244    
     88000  -117034.46      636.74213     -116397.72      187.91323      192.22874      768.19918    
     88100  -117046.17      628.10331     -116418.06      187.94321      192.26075      768.46592    
     88200  -117043.22      617.57366     -116425.65      187.97305      192.28491      768.73265    
     88300  -117048.64      634.30805     -116414.33      187.99742      192.3082       768.99939    
     88400  -117040.01      638.82851     -116401.18      188.02709      192.33615      769.26612    
     88500  -117032.76      635.2958      -116397.46      188.05206      192.3619       769.53286    
     88600  -117048.25      642.44728     -116405.8       188.08509      192.3917       769.7996     
     88700  -117060.4       632.45049     -116427.95      188.11803      192.4167       770.06633    
     88800  -117063.1       613.52419     -116449.58      188.15133      192.44911      770.33307    
     88900  -117066.84      619.56837     -116447.27      188.18438      192.48282      770.5998     
     89000  -117057.95      632.85353     -116425.1       188.21202      192.51375      770.86654    
     89100  -117047.67      641.29467     -116406.37      188.23769      192.54832      771.13327    
     89200  -117048.47      641.0029      -116407.47      188.25449      192.58366      771.40001    
     89300  -117051.34      625.70252     -116425.64      188.27024      192.62348      771.66675    
     89400  -117060.28      624.92869     -116435.35      188.29807      192.66884      771.93348    
     89500  -117046.9       618.03498     -116428.86      188.32466      192.71164      772.20022    
     89600  -117035.25      631.43849     -116403.81      188.34296      192.75195      772.46695    
     89700  -117025.88      646.0046      -116379.87      188.3612       192.79414      772.73369    
     89800  -117034.02      647.22276     -116386.79      188.37617      192.83193      773.00043    
     89900  -117052.59      627.84758     -116424.74      188.4          192.87367      773.26716    
     90000  -117059.09      606.10048     -116452.99      188.42271      192.91457      773.5339     
     90100  -117052.5       615.15522     -116437.34      188.44022      192.95199      773.80063    
     90200  -117036.67      644.41263     -116392.25      188.46094      192.99078      774.06737    
     90300  -117033.38      662.30538     -116371.07      188.483        193.03222      774.3341     
     90400  -117046.88      642.63827     -116404.24      188.50248      193.07117      774.60084    
     90500  -117068.68      615.79081     -116452.89      188.52449      193.10604      774.86758    
     90600  -117077.67      605.93568     -116471.74      188.54412      193.13093      775.13431    
     90700  -117059.48      615.02917     -116444.45      188.57075      193.15709      775.40105    
     90800  -117047.99      649.49085     -116398.5       188.59541      193.1851       775.66778    
     90900  -117045.49      658.49715     -116386.99      188.61695      193.20595      775.93452    
     91000  -117060.1       636.78319     -116423.32      188.64363      193.22814      776.20126    
     91100  -117075.38      609.21841     -116466.17      188.66428      193.24367      776.46799    
     91200  -117078.63      605.95065     -116472.68      188.68929      193.25862      776.73473    
     91300  -117078.76      639.83026     -116438.93      188.72231      193.27342      777.00146    
     91400  -117059.43      647.46864     -116411.96      188.75451      193.28111      777.2682     
     91500  -117066.43      648.2655      -116418.16      188.78219      193.28562      777.53493    
     91600  -117073.91      621.84854     -116452.06      188.81411      193.29773      777.80167    
     91700  -117090.02      612.53639     -116477.48      188.85073      193.31377      778.06841    
     91800  -117095.46      619.10515     -116476.36      188.89389      193.33467      778.33514    
     91900  -117087.46      631.28651     -116456.17      188.93326      193.35448      778.60188    
     92000  -117077.48      638.16584     -116439.31      188.9611       193.37429      778.86861    
     92100  -117076.93      637.70259     -116439.23      188.98661      193.40077      779.13535    
     92200  -117090.24      634.71379     -116455.52      189.0072       193.42259      779.40209    
     92300  -117096.45      626.0304      -116470.42      189.02699      193.44695      779.66882    
     92400  -117098.25      625.76992     -116472.49      189.04807      193.47893      779.93556    
     92500  -117097.05      629.20267     -116467.84      189.06265      193.50914      780.20229    
     92600  -117094.39      630.09354     -116464.3       189.08109      193.54796      780.46903    
     92700  -117101.4       637.01826     -116464.38      189.09507      193.58865      780.73576    
     92800  -117113.05      637.3971      -116475.65      189.10795      193.63085      781.0025     
     92900  -117111.09      621.61421     -116489.47      189.12427      193.67429      781.26924    
     93000  -117116.37      623.35329     -116493.02      189.14706      193.72064      781.53597    
     93100  -117123.39      636.47619     -116486.91      189.17744      193.77138      781.80271    
     93200  -117126.91      637.17182     -116489.73      189.20325      193.81276      782.06944    
     93300  -117128.21      625.95513     -116502.25      189.23127      193.853        782.33618    
     93400  -117141.39      626.30085     -116515.09      189.25996      193.89841      782.60291    
     93500  -117148.73      627.09436     -116521.64      189.2822       193.94082      782.86965    
     93600  -117143.31      626.10368     -116517.2       189.30234      193.98232      783.13639    
     93700  -117145.78      637.87388     -116507.91      189.32628      194.02437      783.40312    
     93800  -117143.48      636.54307     -116506.94      189.35009      194.0604       783.66986    
     93900  -117142.87      628.27769     -116514.59      189.36686      194.09448      783.93659    
     94000  -117146.65      624.69856     -116521.95      189.38004      194.13391      784.20333    
     94100  -117144.93      627.52885     -116517.4       189.3922       194.17296      784.47007    
     94200  -117140.5       636.12816     -116504.37      189.40585      194.21506      784.7368     
     94300  -117133.42      637.91563     -116495.51      189.42262      194.26025      785.00354    
     94400  -117137.1       639.06603     -116498.03      189.43387      194.30626      785.27027    
     94500  -117143.48      629.13075     -116514.34      189.44934      194.3569       785.53701    
     94600  -117151.15      621.01767     -116530.14      189.46686      194.40756      785.80374    
     94700  -117151.92      624.66853     -116527.26      189.4818       194.45952      786.07048    
     94800  -117140.25      628.73782     -116511.51      189.49669      194.51403      786.33722    
     94900  -117138.55      638.9539      -116499.59      189.50942      194.56405      786.60395    
     95000  -117137.3       633.89981     -116503.4       189.52455      194.61184      786.87069    
     95100  -117148.28      631.91353     -116516.37      189.5387       194.66         787.13742    
     95200  -117144.58      618.93354     -116525.65      189.54798      194.70653      787.40416    
     95300  -117147.9       631.37291     -116516.53      189.56178      194.75148      787.6709     
     95400  -117137.24      634.87445     -116502.36      189.57101      194.79115      787.93763    
     95500  -117135.12      639.02075     -116496.1       189.58132      194.82598      788.20437    
     95600  -117138.61      637.87038     -116500.74      189.59937      194.85948      788.4711     
     95700  -117138.25      626.65355     -116511.6       189.61088      194.88989      788.73784    
     95800  -117148.53      627.91788     -116520.61      189.62025      194.91169      789.00457    
     95900  -117151.52      628.93842     -116522.58      189.63137      194.92915      789.27131    
     96000  -117150.09      634.47305     -116515.62      189.64403      194.943        789.53805    
     96100  -117148.34      639.33472     -116509.01      189.655        194.95016      789.80478    
     96200  -117145.29      632.30892     -116512.98      189.66271      194.95166      790.07152    
     96300  -117152.63      631.42572     -116521.2       189.67012      194.94906      790.33825    
     96400  -117154.99      626.93754     -116528.05      189.67848      194.94225      790.60499    
     96500  -117153.64      627.65235     -116525.98      189.67993      194.93271      790.87173    
     96600  -117146.59      627.06438     -116519.53      189.67571      194.9188       791.13846    
     96700  -117151.64      635.00152     -116516.63      189.66762      194.90177      791.4052     
     96800  -117149.48      631.20763     -116518.27      189.65532      194.88429      791.67193    
     96900  -117160.58      637.77846     -116522.8       189.63963      194.86932      791.93867    
     97000  -117158.95      630.37765     -116528.57      189.62406      194.85228      792.2054     
     97100  -117165.44      631.52603     -116533.91      189.60738      194.8293       792.47214    
     97200  -117167.68      631.346       -116536.33      189.5898       194.79582      792.73888    
     97300  -117169.12      632.60118     -116536.52      189.57651      194.7574       793.00561    
     97400  -117168.82      629.08291     -116539.74      189.56374      194.71296      793.27235    
     97500  -117175.6       631.24715     -116544.35      189.54715      194.66029      793.53908    
     97600  -117173.89      629.74848     -116544.14      189.52829      194.60022      793.80582    
     97700  -117173.74      632.89926     -116540.84      189.50309      194.53294      794.07256    
     97800  -117175.56      634.83671     -116540.72      189.47647      194.46061      794.33929    
     97900  -117174.15      633.08533     -116541.06      189.44274      194.37925      794.60603    
     98000  -117168.98      631.43754     -116537.54      189.41033      194.29593      794.87276    
     98100  -117170.81      634.80854     -116536         189.37875      194.2105       795.1395     
     98200  -117168.2       630.01869     -116538.18      189.33978      194.12025      795.40623    
     98300  -117177.91      634.95268     -116542.96      189.301        194.03145      795.67297    
     98400  -117179.22      630.21951     -116549         189.26004      193.94046      795.93971    
     98500  -117180         626.06722     -116553.93      189.21809      193.84758      796.20644    
     98600  -117178.44      625.10241     -116553.33      189.18514      193.75925      796.47318    
     98700  -117175.91      626.6576      -116549.25      189.14997      193.66951      796.73991    
     98800  -117175.63      631.57014     -116544.06      189.11636      193.5823       797.00665    
     98900  -117174.54      630.41521     -116544.13      189.08402      193.49871      797.27339    
     99000  -117172.51      628.87123     -116543.64      189.0554       193.42056      797.54012    
     99100  -117170.43      630.4036      -116540.03      189.03482      193.34962      797.80686    
     99200  -117165.69      631.18527     -116534.51      189.01603      193.28428      798.07359    
     99300  -117163.28      631.45252     -116531.83      188.99357      193.22209      798.34033    
     99400  -117160.41      628.95029     -116531.46      188.97401      193.16726      798.60706    
     99500  -117164.51      634.7892      -116529.72      188.96175      193.11833      798.8738     
     99600  -117159.18      631.51071     -116527.67      188.95536      193.07153      799.14054    
     99700  -117155.19      631.36443     -116523.82      188.94812      193.02359      799.40727    
     99800  -117155.26      635.72353     -116519.54      188.94432      192.97941      799.67401    
     99900  -117156.26      635.49932     -116520.76      188.94162      192.93621      799.94074    
    100000  -117154.93      628.31787     -116526.61      188.94014      192.89397      800.20748    
Loop time of 5208.75 on 12 procs for 100000 steps with 16280 atoms

Performance: 1.659 ns/day, 14.469 hours/ns, 19.198 timesteps/s, 312.551 katom-step/s
81.5% CPU use with 12 MPI tasks x 1 OpenMP threads

MPI task timing breakdown:
Section |  min time  |  avg time  |  max time  |%varavg| %total
---------------------------------------------------------------
Pair    | 1949.4     | 2489.5     | 3329.6     | 821.2 | 47.80
Neigh   | 20.613     | 27.455     | 36.453     | 100.4 |  0.53
Comm    | 931.83     | 1731.5     | 2247.3     | 956.2 | 33.24
Output  | 2.6612     | 2.79       | 2.898      |   4.5 |  0.05
Modify  | 851.34     | 898.95     | 932.77     |  71.6 | 17.26
Other   |            | 58.52      |            |       |  1.12

Nlocal:        1356.67 ave        3003 max         195 min
Histogram: 3 0 2 3 1 0 0 0 1 2
Nghost:        3576.33 ave        5429 max        1684 min
Histogram: 1 3 0 0 1 2 1 1 2 1
Neighs:              0 ave           0 max           0 min
Histogram: 12 0 0 0 0 0 0 0 0 0

Total # of neighbors = 0
Ave neighs/atom = 0
Neighbor list builds = 845
Dangerous builds = 0
Total wall time: 1:26:49
