LAMMPS (2 Aug 2023 - Update 3)
OMP_NUM_THREADS environment is not set. Defaulting to 1 thread. (src/comm.cpp:98)
  using 1 OpenMP thread(s) per MPI task
Reading data file ...
  orthogonal box = (-100 -100 -2.3312512) to (100 100 41.316429)
  3 by 4 by 1 MPI processor grid
  reading atoms ...
  1824 atoms
  read_data CPU = 0.191 seconds
Replication is creating a 1x1x11 = 11 times larger system...
  orthogonal box = (-100 -100 -2.3312512) to (100 100 477.79323)
  2 by 2 by 3 MPI processor grid
  20064 atoms
  replicate CPU = 0.046 seconds
6600 atoms in group SR
Deleted 6600 atoms, new total = 13464
System init for write_data ...
WARNING: Communication cutoff is 0.0. No ghost atoms will be generated. Atoms may get lost. (src/comm_brick.cpp:210)
Reading airebo potential file CH.airebo with DATE: 2011-10-25
Reading airebo potential file CH.airebo with DATE: 2011-10-25
Reading airebo potential file CH.airebo with DATE: 2011-10-25
Neighbor list info ...
  update: every = 1 steps, delay = 0 steps, check = yes
  max neighbors/atom: 2000, page size: 100000
  master list distance cutoff = 13.2
  ghost atom cutoff = 13.2
  binsize = 6.6, bins = 31 31 73
  6 neighbor lists, perpetual/occasional/extra = 6 0 0
  (1) pair airebo, perpetual, skip from (5)
      attributes: full, newton on, ghost
      pair build: skip/ghost
      stencil: none
      bin: none
  (2) pair airebo, perpetual, skip from (5)
      attributes: full, newton on, ghost
      pair build: skip/ghost
      stencil: none
      bin: none
  (3) pair airebo, perpetual, skip from (5)
      attributes: full, newton on, ghost
      pair build: skip/ghost
      stencil: none
      bin: none
  (4) pair lj/cut, perpetual, skip from (6)
      attributes: half, newton on, cut 13
      pair build: skip
      stencil: none
      bin: none
  (5) neighbor class addition, perpetual
      attributes: full, newton on, ghost
      pair build: full/bin/ghost
      stencil: full/ghost/bin/3d
      bin: standard
  (6) neighbor class addition, perpetual
      attributes: half, newton on, cut 13
      pair build: half/bin/atomonly/newton
      stencil: half/bin/3d
      bin: standard
Setting up sd style minimization ...
  Unit style    : metal
  Current step  : 0
Per MPI rank memory allocation (min/avg/max) = 13.05 | 13.05 | 13.06 Mbytes
   Step          Temp          E_pair         E_mol          TotEng         Press     
         0   0             -99861.969      0             -99861.969     -77.843168    
         1   0             -99862.043      0             -99862.043     -77.708063    
Loop time of 0.122522 on 12 procs for 1 steps with 13464 atoms

81.6% CPU use with 12 MPI tasks x 1 OpenMP threads

Minimization stats:
  Stopping criterion = energy tolerance
  Energy initial, next-to-last, final = 
     -99861.9692560237  -99861.9692560237  -99862.0426408226
  Force two-norm initial, final = 4.2624673 1.0988751
  Force max component initial, final = 0.036762983 0.0094736875
  Final line search alpha, max atom move = 1 0.0094736875
  Iterations, force evaluations = 1 2

MPI task timing breakdown:
Section |  min time  |  avg time  |  max time  |%varavg| %total
---------------------------------------------------------------
Pair    | 0.041282   | 0.052087   | 0.074934   |   4.2 | 42.51
Neigh   | 0          | 0          | 0          |   0.0 |  0.00
Comm    | 0.025209   | 0.040416   | 0.048654   |   2.7 | 32.99
Output  | 0          | 0          | 0          |   0.0 |  0.00
Modify  | 0          | 0          | 0          |   0.0 |  0.00
Other   |            | 0.03002    |            |       | 24.50

Nlocal:           1122 ave        1188 max        1056 min
Histogram: 3 0 0 0 0 6 0 0 0 3
Nghost:           4080 ave        4146 max        4014 min
Histogram: 3 0 0 0 0 6 0 0 0 3
Neighs:              0 ave           0 max           0 min
Histogram: 12 0 0 0 0 0 0 0 0 0

Total # of neighbors = 0
Ave neighs/atom = 0
Neighbor list builds = 0
Dangerous builds = 0
Setting up Verlet run ...
  Unit style    : metal
  Current step  : 1
  Time step     : 0.001
Per MPI rank memory allocation (min/avg/max) = 13.68 | 13.68 | 13.68 Mbytes
   Step          Temp          E_pair         E_mol          TotEng         Press          Volume    
         1   300           -99862.043      0             -99339.974     -48.672317      19204979     
Loop time of 4.32522e-05 on 12 procs for 0 steps with 13464 atoms

91.7% CPU use with 12 MPI tasks x 1 OpenMP threads

MPI task timing breakdown:
Section |  min time  |  avg time  |  max time  |%varavg| %total
---------------------------------------------------------------
Pair    | 0          | 0          | 0          |   0.0 |  0.00
Neigh   | 0          | 0          | 0          |   0.0 |  0.00
Comm    | 0          | 0          | 0          |   0.0 |  0.00
Output  | 0          | 0          | 0          |   0.0 |  0.00
Modify  | 0          | 0          | 0          |   0.0 |  0.00
Other   |            | 4.325e-05  |            |       |100.00

Nlocal:           1122 ave        1188 max        1056 min
Histogram: 6 0 0 0 0 0 0 0 0 6
Nghost:           4080 ave        4146 max        4014 min
Histogram: 6 0 0 0 0 0 0 0 0 6
Neighs:              0 ave           0 max           0 min
Histogram: 12 0 0 0 0 0 0 0 0 0

Total # of neighbors = 0
Ave neighs/atom = 0
Neighbor list builds = 0
Dangerous builds = 0
WARNING: Dump 2 includes no atom IDs and is not sorted by ID. This may complicate post-processing tasks or visualization (src/dump.cpp:221)
Setting up Verlet run ...
  Unit style    : metal
  Current step  : 0
  Time step     : 0.001
Per MPI rank memory allocation (min/avg/max) = 15.18 | 15.18 | 15.18 Mbytes
   Step         PotEng         KinEng         TotEng           Lx             Ly             Lz      
         0  -99862.043      522.0688      -99339.974      200            200            480.12448    
       100  -99559.438      256.27174     -99303.167      199.98936      199.98856      480.36455    
       200  -99564.491      311.3243      -99253.167      199.98026      199.97904      480.60461    
       300  -99531.136      337.81097     -99193.325      199.99546      199.99332      480.84467    
       400  -99495.438      367.88125     -99127.557      199.99555      199.99227      481.08473    
       500  -99471.516      413.41897     -99058.097      199.97926      199.97465      481.3248     
       600  -99420.08       432.61637     -98987.464      199.98766      199.98177      481.56486    
       700  -99397.159      478.08311     -98919.076      199.99878      199.99154      481.80492    
       800  -99359.456      501.9816      -98857.474      199.98353      199.97437      482.04498    
       900  -99334.359      524.16887     -98810.19       199.98139      199.97005      482.28504    
      1000  -99317.304      534.54141     -98782.762      199.99493      199.98192      482.52511    
      1100  -99322.578      536.74295     -98785.835      199.98903      199.97324      482.76517    
      1200  -99336.521      524.47346     -98812.048      199.98072      199.9609       483.00523    
      1300  -99336.886      505.81256     -98831.073      199.98927      199.96648      483.24529    
      1400  -99340.263      514.47018     -98825.793      199.9891       199.96181      483.48536    
      1500  -99319.126      517.45898     -98801.667      199.97983      199.94724      483.72542    
      1600  -99306.258      525.41901     -98780.839      199.98539      199.94828      483.96548    
      1700  -99309.862      533.40658     -98776.456      199.99148      199.94831      484.20554    
      1800  -99311.76       523.82807     -98787.932      199.98192      199.93183      484.4456     
      1900  -99317.526      516.12921     -98801.397      199.9819       199.9253       484.68567    
      2000  -99312.805      511.05888     -98801.746      199.99279      199.92839      484.92573    
      2100  -99300.037      515.11833     -98784.919      199.98748      199.91469      485.16579    
      2200  -99291.761      526.91607     -98764.845      199.98054      199.89948      485.40585    
      2300  -99290.709      534.38915     -98756.32       199.99201      199.9013       485.64592    
      2400  -99282.493      521.00643     -98761.486      199.99518      199.89506      485.88598    
      2500  -99289.607      519.03607     -98770.571      199.98485      199.87407      486.12604    
      2600  -99285.732      512.38361     -98773.349      199.9896       199.86779      486.3661     
      2700  -99279.148      516.90083     -98762.247      199.99805      199.86535      486.60616    
      2800  -99267.04       524.99891     -98742.042      199.99141      199.84596      486.84623    
      2900  -99255.378      525.81368     -98729.564      199.99045      199.83243      487.08629    
      3000  -99260.185      530.02595     -98730.159      200.00076      199.82997      487.32635    
      3100  -99251.97       515.20486     -98736.765      199.99958      199.81522      487.56641    
      3200  -99258.837      519.41896     -98739.418      199.99361      199.79592      487.80648    
      3300  -99248.471      517.03499     -98731.436      200.00107      199.78972      488.04654    
      3400  -99234.665      520.72644     -98713.939      200.00613      199.78047      488.2866     
      3500  -99224.318      526.59437     -98697.723      199.99932      199.75908      488.52666    
      3600  -99217.16       523.75174     -98693.408      200.00105      199.74674      488.76672    
      3700  -99216.047      517.96896     -98698.078      200.00941      199.74063      489.00679    
      3800  -99218.453      517.93543     -98700.518      200.00522      199.72167      489.24685    
      3900  -99218.042      523.79989     -98694.242      200.00118      199.70309      489.48691    
      4000  -99200.448      520.93578     -98679.513      200.0085       199.69554      489.72697    
      4100  -99188.385      526.69181     -98661.693      200.00894      199.68124      489.96704    
      4200  -99179.416      528.39991     -98651.016      200.0017       199.66052      490.2071     
      4300  -99177.523      525.73505     -98651.787      200.00434      199.64956      490.44716    
      4400  -99172.498      517.80027     -98654.697      200.00748      199.63939      490.68722    
      4500  -99171.766      521.35443     -98650.412      199.99977      199.61972      490.92728    
      4600  -99156.025      519.28551     -98636.74       199.99639      199.60394      491.16735    
      4700  -99142.938      522.50367     -98620.434      200.00111      199.59604      491.40741    
      4800  -99137.264      528.18934     -98609.075      199.99665      199.58086      491.64747    
      4900  -99128.074      522.05503     -98606.019      199.98727      199.56034      491.88753    
      5000  -99129.36       523.96429     -98605.395      199.98726      199.54989      492.1276     
      5100  -99122.668      521.70275     -98600.966      199.98705      199.5398       492.36766    
      5200  -99106.723      518.55457     -98588.169      199.97598      199.51939      492.60772    
      5300  -99097.023      524.78318     -98572.24       199.96965      199.50401      492.84778    
      5400  -99088.206      528.8297      -98559.377      199.96995      199.49647      493.08784    
      5500  -99075.315      523.05034     -98552.265      199.96176      199.48087      493.32791    
      5600  -99070.311      519.86595     -98550.445      199.95044      199.46239      493.56797    
      5700  -99064.869      516.86966     -98547.999      199.94664      199.45268      493.80803    
      5800  -99059.257      521.78149     -98537.475      199.94127      199.44138      494.04809    
      5900  -99039.995      519.38814     -98520.606      199.92895      199.42327      494.28816    
      6000  -99030.74       525.67615     -98505.064      199.91948      199.41016      494.52822    
      6100  -99015.175      519.45944     -98495.716      199.91486      199.39987      494.76828    
      6200  -99015.273      524.76648     -98490.506      199.90317      199.38413      495.00834    
      6300  -99012.637      524.79073     -98487.846      199.89066      199.36888      495.24841    
      6400  -98995.468      515.46695     -98480.001      199.88344      199.35672      495.48847    
      6500  -98985.729      522.11898     -98463.61       199.87245      199.34305      495.72853    
      6600  -98967.671      523.61532     -98444.055      199.85907      199.32671      495.96859    
      6700  -98960.896      529.00963     -98431.886      199.84973      199.3137       496.20865    
      6800  -98950.886      524.31193     -98426.574      199.83825      199.30102      496.44872    
      6900  -98939.576      515.77484     -98423.801      199.82461      199.28395      496.68878    
      7000  -98937.025      521.20205     -98415.823      199.81165      199.26833      496.92884    
      7100  -98928.004      527.38657     -98400.618      199.80085      199.25614      497.1689     
      7200  -98904.14       523.44528     -98380.694      199.78747      199.23895      497.40897    
      7300  -98894.18       529.75039     -98364.429      199.77202      199.22067      497.64903    
      7400  -98880.614      522.96414     -98357.65       199.76106      199.20742      497.88909    
      7500  -98870.635      515.91269     -98354.722      199.74899      199.19083      498.12915    
      7600  -98861.709      514.04598     -98347.663      199.73165      199.17034      498.36921    
      7700  -98854.486      522.38565     -98332.101      199.71819      199.15324      498.60928    
      7800  -98832.023      520.57134     -98311.452      199.7083       199.13761      498.84934    
      7900  -98818.769      526.1066      -98292.663      199.692        199.11803      499.0894     
      8000  -98807.136      524.67935     -98282.457      199.67623      199.09656      499.32946    
      8100  -98800.343      521.30908     -98279.034      199.66508      199.07918      499.56953    
      8200  -98796.528      522.64794     -98273.88       199.65092      199.06024      499.80959    
      8300  -98780.197      520.0588      -98260.139      199.63397      199.03572      500.04965    
      8400  -98763.218      523.98953     -98239.229      199.62121      199.01487      500.28971    
      8500  -98740.961      523.246       -98217.715      199.60938      198.99617      500.52977    
      8600  -98731.392      528.34418     -98203.048      199.5938       198.9705       500.76984    
      8700  -98719.282      522.16565     -98197.117      199.57768      198.94479      501.0099     
      8800  -98711.784      519.39015     -98192.394      199.56601      198.92365      501.24996    
      8900  -98695.301      514.49763     -98180.803      199.55385      198.89907      501.49002    
      9000  -98686.699      526.04958     -98160.649      199.53629      198.87107      501.73009    
      9100  -98662.739      523.63384     -98139.105      199.52352      198.84567      501.97015    
      9200  -98648.191      525.30918     -98122.882      199.51317      198.82033      502.21021    
      9300  -98637.674      524.53554     -98113.138      199.496        198.79064      502.45027    
      9400  -98627.137      521.23832     -98105.899      199.48151      198.76004      502.69033    
      9500  -98615.469      520.16914     -98095.3        199.47163      198.73391      502.9304     
      9600  -98601.236      524.76735     -98076.469      199.45662      198.7042       503.17046    
      9700  -98576.978      522.56902     -98054.409      199.4406       198.66953      503.41052    
      9800  -98566.231      530.04155     -98036.19       199.42793      198.63969      503.65058    
      9900  -98551.333      527.50555     -98023.827      199.41607      198.61032      503.89065    
     10000  -98538.097      521.79657     -98016.301      199.40054      198.5749       504.13071    
     10100  -98523.872      516.6329      -98007.239      199.38495      198.54129      504.37077    
     10200  -98505.116      514.90864     -97990.207      199.37197      198.5096       504.61083    
     10300  -98485.369      518.40342     -97966.965      199.35745      198.47459      504.85089    
     10400  -98473.902      529.25739     -97944.645      199.34048      198.43935      505.09096    
     10500  -98453.926      524.90754     -97929.019      199.32719      198.40509      505.33102    
     10600  -98444.626      525.68771     -97918.938      199.31173      198.37023      505.57108    
     10700  -98426.261      517.23942     -97909.022      199.29365      198.33309      505.81114    
     10800  -98410.069      515.19607     -97894.873      199.27871      198.29737      506.05121    
     10900  -98394.452      519.17004     -97875.282      199.26355      198.26341      506.29127    
     11000  -98373.989      521.65649     -97852.333      199.24504      198.22518      506.53133    
     11100  -98358.139      525.75544     -97832.384      199.22708      198.18672      506.77139    
     11200  -98344.146      525.26148     -97818.884      199.2109       198.15258      507.01145    
     11300  -98326.944      518.48351     -97808.46       199.19294      198.1151       507.25152    
     11400  -98313.801      518.95918     -97794.842      199.17111      198.07467      507.49158    
     11500  -98299.607      524.26505     -97775.342      199.15254      198.03899      507.73164    
     11600  -98278.105      526.01061     -97752.095      199.13644      198.0044       507.9717     
     11700  -98253.971      523.31879     -97730.652      199.11321      197.96476      508.21177    
     11800  -98235.799      520.94611     -97714.853      199.08968      197.92505      508.45183    
     11900  -98225.292      521.25122     -97704.041      199.07248      197.89048      508.69189    
     12000  -98208.758      516.87397     -97691.885      199.05123      197.85503      508.93195    
     12100  -98187.911      515.04234     -97672.869      199.02463      197.81317      509.17202    
     12200  -98171.009      523.13256     -97647.876      199.00188      197.77545      509.41208    
     12300  -98146.814      521.53439     -97625.279      198.98258      197.74323      509.65214    
     12400  -98134.542      525.3274      -97609.215      198.95832      197.70455      509.8922     
     12500  -98120.512      522.09466     -97598.417      198.92942      197.66296      510.13226    
     12600  -98097.576      514.16081     -97583.415      198.9067       197.629        510.37233    
     12700  -98082.898      520.40439     -97562.493      198.88588      197.5948       510.61239    
     12800  -98064.008      522.98131     -97541.027      198.85616      197.55498      510.85245    
     12900  -98039.649      518.52699     -97521.122      198.82801      197.51652      511.09251    
     13000  -98021.287      519.3816      -97501.906      198.8071       197.48416      511.33258    
     13100  -98002.851      522.21115     -97480.64       198.77986      197.44833      511.57264    
     13200  -97982.924      529.18562     -97453.739      198.74899      197.40799      511.8127     
     13300  -97962.644      528.11659     -97434.527      198.72395      197.37379      512.05276    
     13400  -97943.408      519.21755     -97424.191      198.699        197.34117      512.29282    
     13500  -97930.025      522.4561      -97407.569      198.66858      197.30175      512.53289    
     13600  -97909.632      522.21575     -97387.416      198.63917      197.2647       512.77295    
     13700  -97884.379      517.60813     -97366.771      198.61643      197.23438      513.01301    
     13800  -97863.845      521.321       -97342.524      198.58849      197.19829      513.25307    
     13900  -97844.911      526.92376     -97317.987      198.5554       197.15837      513.49314    
     14000  -97824.628      522.17166     -97302.456      198.53106      197.12597      513.7332     
     14100  -97805.444      516.06484     -97289.379      198.50702      197.09456      513.97326    
     14200  -97792.434      523.07613     -97269.358      198.47435      197.05489      514.21332    
     14300  -97767.081      520.33637     -97246.745      198.44629      197.01875      514.45338    
     14400  -97746.881      526.27293     -97220.609      198.42409      196.98948      514.69345    
     14500  -97721.636      530.88289     -97190.753      198.39624      196.95403      514.93351    
     14600  -97703.851      530.74135     -97173.109      198.36502      196.91489      515.17357    
     14700  -97681.403      523.20606     -97158.197      198.34086      196.88308      515.41363    
     14800  -97655.338      514.21193     -97141.126      198.31779      196.85155      515.6537     
     14900  -97643.763      519.80149     -97123.961      198.28926      196.81398      515.89376    
     15000  -97625.65       520.96208     -97104.688      198.26237      196.779        516.13382    
     15100  -97599.458      516.69199     -97082.766      198.2417       196.7487       516.37388    
     15200  -97573.647      520.16668     -97053.48       198.21596      196.71374      516.61394    
     15300  -97554.677      525.67389     -97029.003      198.18888      196.6773       516.85401    
     15400  -97533.444      522.01673     -97011.427      198.16797      196.64601      517.09407    
     15500  -97513.757      516.33321     -96997.424      198.14659      196.61431      517.33413    
     15600  -97498.986      523.09625     -96975.89       198.12051      196.57723      517.57419    
     15700  -97468.701      517.4764      -96951.225      198.09866      196.54411      517.81426    
     15800  -97450.324      524.54806     -96925.776      198.08061      196.51517      518.05432    
     15900  -97421.621      520.45191     -96901.169      198.05806      196.48041      518.29438    
     16000  -97400.844      524.03961     -96876.804      198.03462      196.44436      518.53444    
     16100  -97377.133      526.24597     -96850.887      198.01728      196.41506      518.7745     
     16200  -97353.773      524.05749     -96829.716      198.00053      196.38488      519.01457    
     16300  -97340.492      525.48535     -96815.007      197.97781      196.34911      519.25463    
     16400  -97313.266      517.06159     -96796.205      197.95807      196.31577      519.49469    
     16500  -97297.277      526.68532     -96770.591      197.94375      196.28763      519.73475    
     16600  -97260.156      520.49223     -96739.664      197.92569      196.25651      519.97482    
     16700  -97241.58       526.38586     -96715.194      197.90556      196.2222       520.21488    
     16800  -97215.588      520.15771     -96695.43       197.89079      196.19364      520.45494    
     16900  -97194.064      518.44528     -96675.618      197.87625      196.16552      520.695      
     17000  -97176.31       520.62152     -96655.688      197.85842      196.13341      520.93506    
     17100  -97156.5        518.03543     -96638.465      197.84226      196.10395      521.17513    
     17200  -97137.46       518.96594     -96618.494      197.829        196.07746      521.41519    
     17300  -97104.866      519.35049     -96585.515      197.81388      196.04895      521.65525    
     17400  -97081.278      525.18475     -96556.093      197.79686      196.01977      521.89531    
     17500  -97052.108      522.12403     -96529.984      197.78361      195.99383      522.13538    
     17600  -97031.01       525.58107     -96505.429      197.77135      195.96899      522.37544    
     17700  -97008.432      524.35594     -96484.076      197.75591      195.94233      522.6155     
     17800  -96985.808      518.6704      -96467.137      197.74091      195.91577      522.85556    
     17900  -96957.238      512.60115     -96444.637      197.72871      195.89282      523.09563    
     18000  -96933.546      521.81996     -96411.726      197.71599      195.86926      523.33569    
     18100  -96904.067      520.43983     -96383.628      197.70195      195.84491      523.57575    
     18200  -96876.52       515.80747     -96360.712      197.68852      195.82233      523.81581    
     18300  -96862.149      523.44398     -96338.705      197.67586      195.79976      524.05587    
     18400  -96835.633      517.40126     -96318.231      197.66259      195.77869      524.29594    
     18500  -96816.101      518.76064     -96297.34       197.64911      195.75747      524.536      
     18600  -96786.348      518.84652     -96267.502      197.63585      195.73664      524.77606    
     18700  -96754.346      520.05653     -96234.29       197.62306      195.71782      525.01612    
     18800  -96737.12       528.41426     -96208.706      197.61044      195.69909      525.25619    
     18900  -96709.433      522.95677     -96186.476      197.59645      195.67941      525.49625    
     19000  -96685.97       517.35427     -96168.616      197.58314      195.66276      525.73631    
     19100  -96664.357      517.48342     -96146.874      197.57141      195.64602      525.97637    
     19200  -96634.197      520.38494     -96113.812      197.5563       195.62817      526.21643    
     19300  -96600.533      516.23001     -96084.303      197.54325      195.61252      526.4565     
     19400  -96576.022      518.66168     -96057.36       197.5322       195.59867      526.69656    
     19500  -96551.635      521.47275     -96030.162      197.51678      195.58287      526.93662    
     19600  -96522.231      519.60282     -96002.628      197.50242      195.56649      527.17668    
     19700  -96500.578      524.6499      -95975.928      197.49152      195.55502      527.41675    
     19800  -96480.818      527.19845     -95953.62       197.4788       195.54313      527.65681    
     19900  -96448.282      514.78368     -95933.499      197.46276      195.52657      527.89687    
     20000  -96426.684      519.95509     -95906.729      197.44869      195.51334      528.13693    
     20100  -96395.426      524.98481     -95870.441      197.43866      195.50442      528.37699    
     20200  -96366.777      525.25934     -95841.518      197.42475      195.49142      528.61706    
     20300  -96343.979      526.17308     -95817.806      197.408        195.47657      528.85712    
     20400  -96316.47       519.38758     -95797.082      197.39688      195.46712      529.09718    
     20500  -96298.191      526.14283     -95772.048      197.38579      195.45739      529.33724    
     20600  -96262.742      525.84476     -95736.897      197.36987      195.44453      529.57731    
     20700  -96230.573      527.16508     -95703.408      197.35675      195.43235      529.81737    
     20800  -96205.02       524.35738     -95680.663      197.34579      195.4245       530.05743    
     20900  -96179.934      519.86257     -95660.072      197.33226      195.41399      530.29749    
     21000  -96152.403      516.8948      -95635.508      197.31783      195.40043      530.53755    
     21100  -96126.806      521.87784     -95604.928      197.30514      195.39195      530.77762    
     21200  -96088.296      521.01762     -95567.279      197.29529      195.38378      531.01768    
     21300  -96067.406      527.82099     -95539.586      197.28114      195.37172      531.25774    
     21400  -96038.996      521.79737     -95517.199      197.26663      195.35997      531.4978     
     21500  -96017.136      522.20178     -95494.934      197.25724      195.35145      531.73787    
     21600  -95988.855      520.09101     -95468.764      197.24566      195.34221      531.97793    
     21700  -95959.059      523.55188     -95435.508      197.23122      195.32941      532.21799    
     21800  -95927.12       528.78486     -95398.335      197.2212       195.31976      532.45805    
     21900  -95898.702      525.98763     -95372.714      197.2119       195.3122       532.69811    
     22000  -95873.434      523.18684     -95350.248      197.19827      195.29933      532.93818    
     22100  -95846.043      519.84304     -95326.2        197.18607      195.28679      533.17824    
     22200  -95814.372      515.75389     -95298.618      197.17799      195.27986      533.4183     
     22300  -95786.69       524.63445     -95262.055      197.16778      195.26799      533.65836    
     22400  -95756.26       528.82238     -95227.437      197.15441      195.25433      533.89843    
     22500  -95729.063      525.91842     -95203.144      197.14525      195.24468      534.13849    
     22600  -95707.17       526.04832     -95181.121      197.13861      195.23519      534.37855    
     22700  -95676.902      523.09371     -95153.809      197.12593      195.22147      534.61861    
     22800  -95645.846      524.30905     -95121.537      197.11487      195.20775      534.85868    
     22900  -95607.232      524.32744     -95082.905      197.10939      195.19943      535.09874    
     23000  -95578.649      525.45457     -95053.194      197.10039      195.18898      535.3388     
     23100  -95552.766      524.04628     -95028.719      197.08814      195.17206      535.57886    
     23200  -95527.908      523.21175     -95004.696      197.07966      195.16053      535.81892    
     23300  -95498.317      519.99916     -94978.317      197.07423      195.15152      536.05899    
     23400  -95466.409      519.85665     -94946.553      197.06389      195.13582      536.29905    
     23500  -95434.505      527.13172     -94907.374      197.05276      195.12096      536.53911    
     23600  -95400.449      522.81853     -94877.63       197.04854      195.11156      536.77917    
     23700  -95376.405      523.80453     -94852.601      197.04185      195.09895      537.01924    
     23800  -95347.442      520.25411     -94827.188      197.02927      195.08237      537.2593     
     23900  -95321.63       522.77539     -94798.854      197.02266      195.06886      537.49936    
     24000  -95293.295      525.29479     -94768          197.01847      195.05848      537.73942    
     24100  -95261.959      527.56531     -94734.394      197.0079       195.04285      537.97948    
     24200  -95223.324      529.73216     -94693.592      196.99885      195.02565      538.21955    
     24300  -95190.71       527.41033     -94663.3        196.99432      195.01563      538.45961    
     24400  -95158.946      519.51698     -94639.429      196.98733      195.00219      538.69967    
     24500  -95138.389      524.55442     -94613.835      196.97634      194.98294      538.93973    
     24600  -95104.882      517.72707     -94587.155      196.96887      194.97017      539.1798     
     24700  -95076.629      519.29004     -94557.339      196.96501      194.95821      539.41986    
     24800  -95034.949      516.81962     -94518.13       196.95502      194.94138      539.65992    
     24900  -95014.302      530.45394     -94483.848      196.94491      194.9254       539.89998    
     25000  -94981.553      523.2719      -94458.281      196.9411       194.91311      540.14004    
     25100  -94955.289      522.77121     -94432.518      196.93306      194.89978      540.38011    
     25200  -94922.486      519.71279     -94402.773      196.9214       194.88129      540.62017    
     25300  -94893.474      522.7891      -94370.685      196.91393      194.86653      540.86023    
     25400  -94859.208      521.7214      -94337.487      196.90873      194.85636      541.10029    
     25500  -94824.935      519.47182     -94305.463      196.89923      194.84019      541.34036    
     25600  -94796.86       522.1956      -94274.665      196.88683      194.82244      541.58042    
     25700  -94765.728      522.10798     -94243.62       196.8799       194.81076      541.82048    
     25800  -94733.584      521.08662     -94212.497      196.87467      194.7989       542.06054    
     25900  -94702.368      523.80337     -94178.564      196.86084      194.78198      542.3006     
     26000  -94666.387      524.77335     -94141.614      196.84948      194.76542      542.54067    
     26100  -94628.766      519.47428     -94109.292      196.84447      194.75557      542.78073    
     26200  -94611.697      524.9633      -94086.734      196.83415      194.74342      543.02079    
     26300  -94578.952      519.05597     -94059.896      196.82009      194.72441      543.26085    
     26400  -94547.382      521.52779     -94025.855      196.80939      194.71188      543.50092    
     26500  -94507.81       518.78898     -93989.021      196.80246      194.70217      543.74098    
     26600  -94474.408      520.16391     -93954.244      196.78949      194.68615      543.98104    
     26700  -94445.26       522.03057     -93923.229      196.77393      194.67042      544.2211     
     26800  -94408.877      515.38207     -93893.495      196.76637      194.66006      544.46116    
     26900  -94384.058      521.96776     -93862.09       196.75519      194.64865      544.70123    
     27000  -94349.946      521.02056     -93828.925      196.73937      194.63269      544.94129    
     27100  -94318.834      527.52422     -93791.31       196.72707      194.61932      545.18135    
     27200  -94282.066      527.36772     -93754.698      196.71589      194.61002      545.42141    
     27300  -94249.479      523.29127     -93726.188      196.70159      194.59573      545.66148    
     27400  -94222.379      519.72896     -93702.65       196.68538      194.58015      545.90154    
     27500  -94191.725      520.98917     -93670.736      196.67257      194.56964      546.1416     
     27600  -94149.727      514.94146     -93634.786      196.66174      194.55947      546.38166    
     27700  -94119.239      521.37279     -93597.866      196.64531      194.54537      546.62172    
     27800  -94082.658      523.96531     -93558.692      196.62818      194.53084      546.86179    
     27900  -94047.255      529.20266     -93518.052      196.6162       194.51997      547.10185    
     28000  -94016.445      525.08375     -93491.361      196.60198      194.50983      547.34191    
     28100  -93988.172      523.39631     -93464.775      196.58446      194.49423      547.58197    
     28200  -93958.539      522.7315      -93435.808      196.56839      194.48101      547.82204    
     28300  -93924.325      518.38309     -93405.942      196.55446      194.47133      548.0621     
     28400  -93889.663      517.48141     -93372.182      196.53968      194.45798      548.30216    
     28500  -93857.098      525.82209     -93331.276      196.52124      194.44427      548.54222    
     28600  -93820.076      525.67968     -93294.396      196.50551      194.43116      548.78229    
     28700  -93790.054      525.17404     -93264.879      196.49132      194.4195       549.02235    
     28800  -93756.754      519.46598     -93237.288      196.47401      194.40696      549.26241    
     28900  -93725.244      521.12287     -93204.122      196.45708      194.39152      549.50247    
     29000  -93688.209      518.43466     -93169.774      196.44142      194.37999      549.74253    
     29100  -93652.334      519.15723     -93133.177      196.42606      194.36734      549.9826     
     29200  -93621.105      527.57144     -93093.534      196.40855      194.3515       550.22266    
     29300  -93585.986      530.97466     -93055.012      196.39126      194.33816      550.46272    
     29400  -93550.703      523.68245     -93027.021      196.37743      194.32553      550.70278    
     29500  -93521.412      518.96155     -93002.45       196.36025      194.31112      550.94285    
     29600  -93486.42       517.1357      -92969.284      196.34206      194.29479      551.18291    
     29700  -93453.262      522.8229      -92930.439      196.32707      194.2814       551.42297    
     29800  -93414.846      523.82472     -92891.021      196.3123       194.26866      551.66303    
     29900  -93378.691      522.34869     -92856.342      196.29421      194.25135      551.90309    
     30000  -93350.793      519.95487     -92830.839      196.27651      194.23415      552.14316    
     30100  -93320.02       516.00313     -92804.017      196.26193      194.22082      552.38322    
     30200  -93287.651      523.0047      -92764.646      196.2467       194.20461      552.62328    
     30300  -93244.478      520.51915     -92723.959      196.22837      194.18673      552.86334    
     30400  -93210.396      523.34661     -92687.049      196.21289      194.17062      553.10341    
     30500  -93173.887      522.02902     -92651.858      196.19821      194.15442      553.34347    
     30600  -93137.673      519.05527     -92618.617      196.18161      194.13695      553.58353    
     30700  -93108.155      518.80193     -92589.353      196.16571      194.11864      553.82359    
     30800  -93077.305      519.22155     -92558.084      196.15035      194.10123      554.06365    
     30900  -93040.374      520.90556     -92519.469      196.13467      194.08347      554.30372    
     31000  -93007.587      530.60103     -92476.986      196.1191       194.06397      554.54378    
     31100  -92967.155      524.82505     -92442.33       196.10315      194.04557      554.78384    
     31200  -92934.354      523.56943     -92410.785      196.08874      194.02743      555.0239     
     31300  -92904.57       523.74977     -92380.821      196.07372      194.00802      555.26397    
     31400  -92869.842      515.95066     -92353.891      196.05633      193.98739      555.50403    
     31500  -92833.587      513.89936     -92319.688      196.04181      193.96701      555.74409    
     31600  -92794.741      520.07569     -92274.665      196.02763      193.94944      555.98415    
     31700  -92759.313      523.85277     -92235.46       196.01216      193.9288       556.22421    
     31800  -92717.579      520.5352      -92197.044      195.99624      193.90705      556.46428    
     31900  -92685.612      525.74629     -92159.866      195.98103      193.88746      556.70434    
     32000  -92645.027      519.90668     -92125.121      195.9675       193.86722      556.9444     
     32100  -92617.374      521.2108      -92096.163      195.9514       193.84593      557.18446    
     32200  -92581.673      515.86838     -92065.805      195.93467      193.82389      557.42453    
     32300  -92545.86       519.54971     -92026.311      195.92113      193.80323      557.66459    
     32400  -92506.76       524.11325     -91982.647      195.90589      193.78337      557.90465    
     32500  -92471.653      524.20656     -91947.447      195.88886      193.75954      558.14471    
     32600  -92441.755      526.66747     -91915.087      195.87302      193.73814      558.38477    
     32700  -92402.02       518.67914     -91883.341      195.85786      193.71768      558.62484    
     32800  -92376.827      524.27297     -91852.554      195.84236      193.69455      558.8649     
     32900  -92333.632      516.46947     -91817.162      195.82445      193.67263      559.10496    
     33000  -92292.529      520.21503     -91772.314      195.80921      193.65034      559.34502    
     33100  -92252.491      520.01254     -91732.479      195.79332      193.62922      559.58509    
     33200  -92219.429      523.44109     -91695.988      195.77609      193.60747      559.82515    
     33300  -92185.787      522.75817     -91663.029      195.75982      193.58426      560.06521    
     33400  -92153.177      519.44616     -91633.731      195.74179      193.56351      560.30527    
     33500  -92122.352      522.02871     -91600.324      195.72611      193.54093      560.54533    
     33600  -92078.137      523.27444     -91554.863      195.7081       193.51921      560.7854     
     33700  -92043.031      527.67338     -91515.358      195.69039      193.49739      561.02546    
     33800  -92000.318      520.33281     -91479.985      195.67395      193.47522      561.26552    
     33900  -91963.792      518.311       -91445.481      195.6543       193.45344      561.50558    
     34000  -91932.403      522.23156     -91410.171      195.63637      193.43056      561.74565    
     34100  -91897.599      525.6403      -91371.959      195.6193       193.41096      561.98571    
     34200  -91853.32       523.01315     -91330.307      195.60094      193.38963      562.22577    
     34300  -91815.775      525.399       -91290.376      195.58035      193.36563      562.46583    
     34400  -91781.754      524.69789     -91257.056      195.56049      193.34514      562.7059     
     34500  -91748.867      517.70179     -91231.165      195.54407      193.3255       562.94596    
     34600  -91716.245      521.53614     -91194.708      195.52395      193.30405      563.18602    
     34700  -91673.381      520.31527     -91153.066      195.50192      193.2817       563.42608    
     34800  -91635.142      522.88211     -91112.26       195.48349      193.26093      563.66614    
     34900  -91597.671      522.77912     -91074.892      195.46373      193.24246      563.90621    
     35000  -91563.322      524.05252     -91039.269      195.44288      193.21987      564.14627    
     35100  -91524.03       520.1787      -91003.851      195.42136      193.19928      564.38633    
     35200  -91492.139      523.49188     -90968.648      195.4018       193.1803       564.62639    
     35300  -91450.478      517.37069     -90933.107      195.38038      193.1588       564.86646    
     35400  -91413.556      521.20107     -90892.355      195.35682      193.13846      565.10652    
     35500  -91371.341      520.9107      -90850.43       195.33823      193.11942      565.34658    
     35600  -91335.308      522.59465     -90812.713      195.31647      193.10077      565.58664    
     35700  -91300.31       520.37386     -90779.936      195.2919       193.07813      565.8267     
     35800  -91271.161      519.64512     -90751.516      195.2702       193.05775      566.06677    
     35900  -91228.586      515.22495     -90713.361      195.24911      193.04129      566.30683    
     36000  -91185.788      516.39444     -90669.394      195.22674      193.01996      566.54689    
     36100  -91156.215      525.39392     -90630.821      195.20223      193.00015      566.78695    
     36200  -91113.463      521.21895     -90592.244      195.18055      192.98115      567.02702    
     36300  -91074.414      522.56657     -90551.847      195.15809      192.96156      567.26708    
     36400  -91032.446      523.1511      -90509.295      195.13425      192.94229      567.50714    
     36500  -90997.36       526.14863     -90471.212      195.11275      192.92239      567.7472     
     36600  -90968.319      524.32236     -90443.997      195.08938      192.9039       567.98726    
     36700  -90927.776      517.23912     -90410.537      195.06582      192.88288      568.22733    
     36800  -90892.926      522.87266     -90370.053      195.04254      192.86309      568.46739    
     36900  -90849.39       523.3992      -90325.991      195.01993      192.84492      568.70745    
     37000  -90814.186      527.14743     -90287.039      194.99803      192.82471      568.94751    
     37100  -90773.365      521.947       -90251.418      194.97337      192.80531      569.18758    
     37200  -90735.092      519.3654      -90215.727      194.95086      192.78453      569.42764    
     37300  -90698.038      519.82441     -90178.214      194.92831      192.76572      569.6677     
     37400  -90661.503      525.02026     -90136.483      194.90614      192.74667      569.90776    
     37500  -90618.426      528.5651      -90089.861      194.88416      192.72629      570.14782    
     37600  -90579.585      524.27696     -90055.308      194.86021      192.7064       570.38789    
     37700  -90547.834      522.34067     -90025.494      194.83875      192.68526      570.62795    
     37800  -90514.062      522.91993     -89991.143      194.81694      192.66658      570.86801    
     37900  -90472.733      521.03665     -89951.696      194.79518      192.64571      571.10807    
     38000  -90433.454      524.89678     -89908.557      194.77322      192.6246       571.34814    
     38100  -90387.561      525.41269     -89862.148      194.75148      192.60538      571.5882     
     38200  -90353.711      529.69542     -89824.016      194.73084      192.58294      571.82826    
     38300  -90316.228      525.9806      -89790.247      194.70844      192.56209      572.06832    
     38400  -90279.029      521.89132     -89757.138      194.68837      192.54094      572.30838    
     38500  -90242.893      519.01308     -89723.88       194.66802      192.51946      572.54845    
     38600  -90209.072      521.14359     -89687.928      194.64667      192.49831      572.78851    
     38700  -90164.052      521.59396     -89642.458      194.6271       192.47572      573.02857    
     38800  -90124.973      526.47076     -89598.502      194.60654      192.45505      573.26863    
     38900  -90086.719      524.39303     -89562.326      194.58761      192.4332       573.5087     
     39000  -90049.22       519.89181     -89529.328      194.56792      192.41156      573.74876    
     39100  -90014.389      519.01515     -89495.374      194.54819      192.38949      573.98882    
     39200  -89975.892      523.12929     -89452.763      194.5289       192.3661       574.22888    
     39300  -89928.25       523.71725     -89404.533      194.50974      192.34486      574.46894    
     39400  -89894.654      526.82643     -89367.827      194.49278      192.32338      574.70901    
     39500  -89859.396      523.42837     -89335.968      194.47307      192.30036      574.94907    
     39600  -89817.735      516.78008     -89300.955      194.45305      192.27631      575.18913    
     39700  -89782.579      524.29309     -89258.286      194.43577      192.2538       575.42919    
     39800  -89736.628      526.27987     -89210.348      194.41844      192.23353      575.66926    
     39900  -89700.366      526.908       -89173.458      194.40028      192.20971      575.90932    
     40000  -89661.562      520.88312     -89140.679      194.38103      192.18642      576.14938    
     40100  -89621.817      516.33218     -89105.485      194.36426      192.16408      576.38944    
     40200  -89589.971      523.32403     -89066.647      194.34771      192.14222      576.62951    
     40300  -89542.197      524.42025     -89017.777      194.3294       192.1193       576.86957    
     40400  -89502.895      525.66761     -88977.227      194.31232      192.09606      577.10963    
     40500  -89467.518      523.02686     -88944.491      194.29574      192.07519      577.34969    
     40600  -89429.797      519.42454     -88910.372      194.27907      192.05234      577.58975    
     40700  -89390.059      519.26363     -88870.795      194.25994      192.02818      577.82982    
     40800  -89353.924      523.57579     -88830.348      194.24309      192.00683      578.06988    
     40900  -89304.884      515.23695     -88789.647      194.22868      191.98585      578.30994    
     41000  -89269.882      521.49377     -88748.389      194.20985      191.96324      578.55       
     41100  -89234.798      535.63495     -88699.163      194.19208      191.93917      578.79007    
     41200  -89193.613      533.87721     -88659.735      194.17727      191.92014      579.03013    
     41300  -89152.097      521.68725     -88630.409      194.1616       191.90012      579.27019    
     41400  -89118.885      521.88783     -88596.998      194.14304      191.87615      579.51025    
     41500  -89077.398      517.19664     -88560.201      194.12411      191.85428      579.75031    
     41600  -89040.702      521.8918      -88518.811      194.11042      191.83507      579.99038    
     41700  -88995.812      524.48258     -88471.33       194.09366      191.81568      580.23044    
     41800  -88955.273      525.20404     -88430.069      194.07415      191.7925       580.4705     
     41900  -88922.935      528.14056     -88394.794      194.05715      191.77179      580.71056    
     42000  -88876.055      516.98717     -88359.068      194.04212      191.75452      580.95063    
     42100  -88837.513      517.53204     -88319.981      194.02496      191.7332       581.19069    
     42200  -88801.895      521.90699     -88279.988      194.00512      191.71189      581.43075    
     42300  -88760.176      519.87957     -88240.296      193.98892      191.69306      581.67081    
     42400  -88726.148      527.23224     -88198.916      193.9726       191.67484      581.91087    
     42500  -88682.122      525.22636     -88156.896      193.95354      191.65506      582.15094    
     42600  -88642.701      524.58568     -88118.115      193.93624      191.63554      582.391      
     42700  -88604.978      519.31678     -88085.661      193.92055      191.61966      582.63106    
     42800  -88569.219      518.80501     -88050.414      193.90308      191.60117      582.87112    
     42900  -88529.669      522.50032     -88007.168      193.88255      191.58095      583.11119    
     43000  -88482.895      520.44091     -87962.454      193.86608      191.56418      583.35125    
     43100  -88439.828      517.4114      -87922.417      193.85073      191.54924      583.59131    
     43200  -88405.322      521.37983     -87883.942      193.83135      191.53046      583.83137    
     43300  -88366.887      520.25448     -87846.633      193.812        191.51228      584.07143    
     43400  -88328.951      519.4516      -87809.5        193.79623      191.49743      584.3115     
     43500  -88286.895      518.248       -87768.647      193.77987      191.48252      584.55156    
     43600  -88246.085      523.40022     -87722.685      193.76027      191.46453      584.79162    
     43700  -88204.719      525.6767      -87679.043      193.74012      191.44701      585.03168    
     43800  -88161.229      517.4363      -87643.793      193.72321      191.43263      585.27175    
     43900  -88131.233      518.48692     -87612.746      193.70624      191.41795      585.51181    
     44000  -88095.582      524.21309     -87571.369      193.68602      191.40101      585.75187    
     44100  -88052.844      525.33803     -87527.506      193.66791      191.38531      585.99193    
     44200  -88003.255      519.40814     -87483.847      193.65156      191.37266      586.23199    
     44300  -87969.975      527.64744     -87442.328      193.63329      191.35794      586.47206    
     44400  -87930.079      523.63529     -87406.444      193.61278      191.34082      586.71212    
     44500  -87895.803      522.85719     -87372.946      193.59412      191.32566      586.95218    
     44600  -87851.435      517.60835     -87333.826      193.57817      191.31307      587.19224    
     44700  -87810.257      522.21119     -87288.046      193.56043      191.29971      587.43231    
     44800  -87768.647      527.11305     -87241.534      193.54003      191.28281      587.67237    
     44900  -87726.862      524.19647     -87202.665      193.52137      191.26847      587.91243    
     45000  -87691.543      525.55582     -87165.988      193.50552      191.2565       588.15249    
     45100  -87651.121      523.45462     -87127.666      193.48865      191.24331      588.39255    
     45200  -87606.572      517.35114     -87089.221      193.46878      191.2279       588.63262    
     45300  -87570.402      519.80764     -87050.594      193.45022      191.21257      588.87268    
     45400  -87531.929      519.60667     -87012.322      193.43335      191.19988      589.11274    
     45500  -87486.481      515.9052      -86970.576      193.41654      191.18631      589.3528     
     45600  -87447.875      523.71078     -86924.164      193.398        191.17125      589.59287    
     45700  -87404.637      524.77115     -86879.866      193.38035      191.15757      589.83293    
     45800  -87367.432      524.87452     -86842.557      193.36506      191.1445       590.07299    
     45900  -87335.325      523.21124     -86812.114      193.34777      191.13069      590.31305    
     46000  -87294.283      522.31558     -86771.967      193.33093      191.11584      590.55312    
     46100  -87248.067      520.71791     -86727.349      193.31521      191.10253      590.79318    
     46200  -87206.314      524.12191     -86682.193      193.29934      191.08912      591.03324    
     46300  -87166.24       524.95739     -86641.282      193.28288      191.07356      591.2733     
     46400  -87134.805      525.56523     -86609.24       193.26536      191.05909      591.51336    
     46500  -87092.433      519.1024      -86573.331      193.25114      191.04516      591.75343    
     46600  -87049.73       520.53967     -86529.19       193.23648      191.03222      591.99349    
     46700  -87007.226      525.55252     -86481.674      193.22021      191.01699      592.23355    
     46800  -86964.632      524.79675     -86439.835      193.20459      191.00172      592.47361    
     46900  -86925.398      521.86196     -86403.536      193.18953      190.98781      592.71368    
     47000  -86891.151      519.06805     -86372.083      193.17551      190.97297      592.95374    
     47100  -86850.449      516.55035     -86333.899      193.16041      190.95802      593.1938     
     47200  -86804.537      515.40171     -86289.136      193.14619      190.94314      593.43386    
     47300  -86766.012      524.54075     -86241.471      193.13249      190.92844      593.67392    
     47400  -86718.008      520.9705      -86197.037      193.11844      190.9133       593.91399    
     47500  -86682.234      523.95786     -86158.276      193.10422      190.89687      594.15405    
     47600  -86645.389      520.60912     -86124.78       193.09065      190.88228      594.39411    
     47700  -86605.295      518.64227     -86086.653      193.07852      190.86715      594.63417    
     47800  -86561.434      518.06622     -86043.367      193.06441      190.85092      594.87424    
     47900  -86522.794      523.1825      -85999.612      193.05015      190.83393      595.1143     
     48000  -86482.07       524.02876     -85958.041      193.03757      190.81786      595.35436    
     48100  -86440.793      523.42922     -85917.364      193.02589      190.80341      595.59442    
     48200  -86399.3        520.36293     -85878.937      193.01387      190.787        595.83448    
     48300  -86361.486      515.97901     -85845.507      193.00066      190.77003      596.07455    
     48400  -86322.789      516.26614     -85806.523      192.98812      190.75392      596.31461    
     48500  -86276.983      520.74618     -85756.236      192.97701      190.73793      596.55467    
     48600  -86233.558      521.65435     -85711.904      192.96424      190.72165      596.79473    
     48700  -86195.118      522.5807      -85672.537      192.95214      190.70456      597.0348     
     48800  -86157.845      520.8881      -85636.957      192.94058      190.68892      597.27486    
     48900  -86116.02       517.34517     -85598.675      192.92922      190.67343      597.51492    
     49000  -86074.323      519.78928     -85554.534      192.91704      190.65612      597.75498    
     49100  -86032.595      529.80242     -85502.792      192.90448      190.63958      597.99504    
     49200  -85989.613      526.8357      -85462.777      192.89429      190.62397      598.23511    
     49300  -85951.628      523.75184     -85427.876      192.88264      190.60817      598.47517    
     49400  -85914.731      525.18405     -85389.547      192.8705       190.59081      598.71523    
     49500  -85869.005      519.72372     -85349.282      192.85851      190.57448      598.95529    
     49600  -85830.854      523.41874     -85307.435      192.84769      190.55925      599.19536    
     49700  -85791.031      524.96704     -85266.064      192.83635      190.54275      599.43542    
     49800  -85748.118      520.52679     -85227.591      192.82329      190.52594      599.67548    
     49900  -85709.026      519.66801     -85189.358      192.81253      190.50974      599.91554    
     50000  -85666.569      518.62633     -85147.943      192.80205      190.49568      600.1556     
     50100  -85625.438      524.34854     -85101.09       192.78968      190.47888      600.39567    
     50200  -85580.52       526.70491     -85053.815      192.77614      190.46149      600.63573    
     50300  -85541.073      526.55352     -85014.52       192.76493      190.44679      600.87579    
     50400  -85502.805      520.95855     -84981.847      192.75445      190.43253      601.11585    
     50500  -85458.692      517.49268     -84941.2        192.74151      190.41638      601.35592    
     50600  -85421.088      523.24431     -84897.844      192.7281       190.39941      601.59598    
     50700  -85377.185      524.80325     -84852.382      192.71644      190.38515      601.83604    
     50800  -85331.589      524.48758     -84807.101      192.70565      190.37144      602.0761     
     50900  -85292.42       521.31196     -84771.108      192.69221      190.35638      602.31617    
     51000  -85257.364      522.18683     -84735.178      192.67848      190.34039      602.55623    
     51100  -85218.816      524.46744     -84694.348      192.6664       190.32635      602.79629    
     51200  -85173.085      521.23067     -84651.854      192.65366      190.31291      603.03635    
     51300  -85127.667      522.35935     -84605.307      192.6392       190.29666      603.27641    
     51400  -85080.977      522.62828     -84558.349      192.62388      190.28177      603.51648    
     51500  -85046.219      524.09183     -84522.127      192.61278      190.26921      603.75654    
     51600  -85007.227      520.51557     -84486.711      192.60013      190.25674      603.9966     
     51700  -84966.198      519.84633     -84446.352      192.58369      190.24103      604.23666    
     51800  -84924.919      520.88624     -84404.033      192.56878      190.22665      604.47673    
     51900  -84882.852      521.6949      -84361.157      192.55677      190.21575      604.71679    
     52000  -84846.647      525.07199     -84321.575      192.54326      190.20297      604.95685    
     52100  -84805.519      521.30701     -84284.212      192.52584      190.18777      605.19691    
     52200  -84767.501      524.57873     -84242.922      192.51148      190.1748       605.43697    
     52300  -84718.739      522.53124     -84196.208      192.4988       190.16445      605.67704    
     52400  -84668.667      522.64434     -84146.022      192.48303      190.15082      605.9171     
     52500  -84634.619      527.80155     -84106.818      192.46541      190.13633      606.15716    
     52600  -84589.783      517.08917     -84072.694      192.45131      190.12548      606.39722    
     52700  -84549.829      518.01189     -84031.817      192.43885      190.11568      606.63729    
     52800  -84511.485      521.16726     -83990.318      192.42069      190.10167      606.87735    
     52900  -84468.669      517.91474     -83950.755      192.40246      190.08629      607.11741    
     53000  -84428.551      516.48786     -83912.063      192.38876      190.07684      607.35747    
     53100  -84391.476      520.64126     -83870.835      192.37506      190.06669      607.59753    
     53200  -84346.262      521.59277     -83824.669      192.35646      190.05208      607.8376     
     53300  -84300.352      526.01439     -83774.337      192.33918      190.03894      608.07766    
     53400  -84260.596      527.86662     -83732.729      192.32595      190.02925      608.31772    
     53500  -84220.433      522.48335     -83697.95       192.31002      190.01836      608.55778    
     53600  -84181.053      523.60207     -83657.451      192.29254      190.00389      608.79785    
     53700  -84140.567      524.11668     -83616.45       192.27507      189.99159      609.03791    
     53800  -84096.221      519.07599     -83577.145      192.26089      189.98114      609.27797    
     53900  -84058.207      520.85038     -83537.356      192.2454       189.96963      609.51803    
     54000  -84017.024      519.14822     -83497.876      192.22729      189.956        609.75809    
     54100  -83974.132      516.80327     -83457.329      192.21128      189.94391      609.99816    
     54200  -83925.937      518.73861     -83407.199      192.19651      189.93365      610.23822    
     54300  -83886.937      529.46689     -83357.47       192.17991      189.92105      610.47828    
     54400  -83839.867      522.75832     -83317.109      192.16148      189.90684      610.71834    
     54500  -83798.111      520.59367     -83277.517      192.14555      189.89476      610.95841    
     54600  -83759.333      523.28193     -83236.051      192.13163      189.88438      611.19847    
     54700  -83721.282      524.84483     -83196.437      192.11546      189.87225      611.43853    
     54800  -83678.478      521.43959     -83157.038      192.0971       189.85704      611.67859    
     54900  -83633.017      518.49758     -83114.519      192.0811       189.84402      611.91865    
     55000  -83595.08       524.0822      -83070.997      192.06794      189.83404      612.15872    
     55100  -83550.049      522.43999     -83027.609      192.05271      189.82145      612.39878    
     55200  -83507.272      522.32838     -82984.943      192.03373      189.80529      612.63884    
     55300  -83463.939      519.18885     -82944.75       192.01839      189.79125      612.8789     
     55400  -83421.75       516.10935     -82905.641      192.00479      189.78013      613.11897    
     55500  -83385.578      520.68047     -82864.897      191.98971      189.76649      613.35903    
     55600  -83343.005      519.87871     -82823.126      191.97202      189.75077      613.59909    
     55700  -83305.448      517.94422     -82787.503      191.95648      189.73647      613.83915    
     55800  -83266.54       522.65106     -82743.889      191.94334      189.72461      614.07921    
     55900  -83217.055      524.17028     -82692.884      191.92823      189.71036      614.31928    
     56000  -83165.449      520.37237     -82645.076      191.91057      189.69303      614.55934    
     56100  -83130.237      528.02983     -82602.207      191.8957       189.67867      614.7994     
     56200  -83087.251      526.08458     -82561.166      191.88339      189.66662      615.03946    
     56300  -83046.796      524.25815     -82522.538      191.86803      189.65068      615.27953    
     56400  -83005.333      523.00781     -82482.326      191.85134      189.63362      615.51959    
     56500  -82960.438      519.54948     -82440.888      191.8371       189.61828      615.75965    
     56600  -82922.362      525.02607     -82397.336      191.82397      189.6046       615.99971    
     56700  -82878.307      520.37714     -82357.93       191.80996      189.58855      616.23978    
     56800  -82835.762      516.28893     -82319.473      191.79405      189.57235      616.47984    
     56900  -82793.153      521.17419     -82271.979      191.77961      189.55567      616.7199     
     57000  -82743.326      522.30319     -82221.023      191.76599      189.54044      616.95996    
     57100  -82698.875      527.29032     -82171.585      191.75171      189.52394      617.20002    
     57200  -82659.239      521.97378     -82137.266      191.73634      189.50587      617.44009    
     57300  -82618.188      519.84962     -82098.338      191.72207      189.48953      617.68015    
     57400  -82580.387      522.61095     -82057.776      191.70999      189.47417      617.92021    
     57500  -82534.829      517.4525      -82017.377      191.69591      189.45754      618.16027    
     57600  -82496.346      522.1649      -81974.181      191.68095      189.43893      618.40034    
     57700  -82455.392      526.96912     -81928.423      191.66741      189.42159      618.6404     
     57800  -82412.329      527.67599     -81884.653      191.65431      189.40605      618.88046    
     57900  -82362.432      516.88199     -81845.55       191.64145      189.38778      619.12052    
     58000  -82321.509      518.81039     -81802.698      191.62612      189.36963      619.36058    
     58100  -82279.056      522.12124     -81756.935      191.61418      189.35266      619.60065    
     58200  -82233.789      524.09114     -81709.698      191.60072      189.3358       619.84071    
     58300  -82193.8        524.19546     -81669.605      191.58511      189.31617      620.08077    
     58400  -82151.68       522.51538     -81629.165      191.5708       189.29757      620.32083    
     58500  -82108.229      523.67629     -81584.553      191.55954      189.2829       620.5609     
     58600  -82069.317      526.44147     -81542.875      191.54748      189.26595      620.80096    
     58700  -82023.569      520.51978     -81503.049      191.52988      189.24478      621.04102    
     58800  -81978.439      521.74448     -81456.694      191.51478      189.22514      621.28108    
     58900  -81934.813      526.09493     -81408.718      191.50438      189.21092      621.52114    
     59000  -81886.418      521.91606     -81364.502      191.48999      189.19261      621.76121    
     59100  -81844.671      520.8615      -81323.809      191.47221      189.17088      622.00127    
     59200  -81804.936      525.72747     -81279.209      191.45873      189.15401      622.24133    
     59300  -81757.266      522.74626     -81234.519      191.44717      189.13775      622.48139    
     59400  -81715.798      524.40523     -81191.392      191.4302       189.11844      622.72146    
     59500  -81670.53       521.78487     -81148.745      191.41412      189.09899      622.96152    
     59600  -81627.366      524.3585      -81103.007      191.40114      189.08243      623.20158    
     59700  -81585.83       526.60327     -81059.227      191.38698      189.0659       623.44164    
     59800  -81540.185      522.99596     -81017.189      191.37086      189.04609      623.6817     
     59900  -81495.085      523.4457      -80971.64       191.35345      189.02722      623.92177    
     60000  -81452.095      525.73641     -80926.359      191.34041      189.01087      624.16183    
     60100  -81406.069      523.20797     -80882.861      191.32541      188.99375      624.40189    
     60200  -81357.674      519.60593     -80838.068      191.30728      188.97336      624.64195    
     60300  -81316.034      523.44933     -80792.584      191.29252      188.95622      624.88202    
     60400  -81275.939      526.3396      -80749.599      191.27875      188.94124      625.12208    
     60500  -81233.376      527.91765     -80705.458      191.26081      188.92096      625.36214    
     60600  -81183.269      522.99818     -80660.271      191.24182      188.9015       625.6022     
     60700  -81138.722      522.60102     -80616.121      191.22796      188.88702      625.84226    
     60800  -81096.423      524.22917     -80572.194      191.21397      188.87119      626.08233    
     60900  -81044.778      517.99373     -80526.784      191.19373      188.85203      626.32239    
     61000  -81001.81       520.50561     -80481.304      191.17588      188.83294      626.56245    
     61100  -80962.622      525.39413     -80437.228      191.16086      188.8186       626.80251    
     61200  -80920.215      528.18621     -80392.029      191.1446       188.80324      627.04258    
     61300  -80871.829      525.19866     -80346.631      191.12513      188.78336      627.28264    
     61400  -80822.273      520.91471     -80301.359      191.10646      188.76677      627.5227     
     61500  -80782.228      525.48909     -80256.739      191.09241      188.75343      627.76276    
     61600  -80737.266      525.68007     -80211.586      191.07406      188.73635      628.00282    
     61700  -80687.9        521.8791      -80166.021      191.05144      188.71675      628.24289    
     61800  -80644.001      524.00852     -80119.992      191.0353       188.70139      628.48295    
     61900  -80599.629      525.91278     -80073.716      191.0193       188.68901      628.72301    
     62000  -80550.404      523.02915     -80027.374      190.99909      188.67037      628.96307    
     62100  -80504.866      524.1833      -79980.683      190.97779      188.65202      629.20314    
     62200  -80456.577      520.94438     -79935.633      190.96191      188.63919      629.4432     
     62300  -80411.58       521.73264     -79889.847      190.94444      188.62439      629.68326    
     62400  -80363.891      520.53197     -79843.359      190.92239      188.6052       629.92332    
     62500  -80319.53       523.70226     -79795.827      190.90311      188.58924      630.16339    
     62600  -80275.117      525.75601     -79749.361      190.88723      188.57593      630.40345    
     62700  -80226.112      523.90642     -79702.205      190.86624      188.55846      630.64351    
     62800  -80179.493      525.0063      -79654.486      190.84455      188.54018      630.88357    
     62900  -80132.258      523.99853     -79608.26       190.82842      188.52691      631.12363    
     63000  -80088.424      526.91927     -79561.505      190.81037      188.51253      631.3637     
     63100  -80039.059      525.24922     -79513.809      190.78824      188.49401      631.60376    
     63200  -79988.85       522.66387     -79466.186      190.76886      188.47785      631.84382    
     63300  -79943.367      523.93184     -79419.435      190.75185      188.46484      632.08388    
     63400  -79897.343      525.61526     -79371.728      190.73181      188.4477       632.32395    
     63500  -79848.894      525.36075     -79323.534      190.71018      188.42993      632.56401    
     63600  -79801.574      527.15237     -79274.421      190.69225      188.41542      632.80407    
     63700  -79756.376      529.66777     -79226.708      190.67427      188.40069      633.04413    
     63800  -79709.593      531.43587     -79178.157      190.6526       188.38279      633.28419    
     63900  -79655.597      527.00207     -79128.595      190.63284      188.36617      633.52426    
     64000  -79606.945      526.07073     -79080.874      190.61576      188.35207      633.76432    
     64100  -79558.078      525.82537     -79032.253      190.5956       188.33601      634.00438    
     64200  -79506.448      523.07177     -78983.376      190.57554      188.31849      634.24444    
     64300  -79456.261      522.39716     -78933.864      190.55697      188.30345      634.48451    
     64400  -79409.517      523.67238     -78885.844      190.53823      188.28819      634.72457    
     64500  -79359.454      523.40636     -78836.047      190.51785      188.27016      634.96463    
     64600  -79315.755      530.15588     -78785.599      190.49866      188.25397      635.20469    
     64700  -79265.092      529.6158      -78735.477      190.48179      188.24011      635.44475    
     64800  -79212.249      527.73454     -78684.515      190.46277      188.22254      635.68482    
     64900  -79162.726      528.99298     -78633.733      190.44206      188.20477      635.92488    
     65000  -79110.206      527.05578     -78583.15       190.42421      188.18883      636.16494    
     65100  -79055.169      522.32901     -78532.84       190.4072       188.1734       636.405      
     65200  -79009.446      528.37329     -78481.073      190.38725      188.15598      636.64507    
     65300  -78957.471      527.9607      -78429.51       190.36899      188.13863      636.88513    
     65400  -78906.296      526.95557     -78379.34       190.35209      188.12367      637.12519    
     65500  -78853.616      527.00708     -78326.609      190.33445      188.10695      637.36525    
     65600  -78801.318      525.25038     -78276.067      190.31533      188.08847      637.60531    
     65700  -78750.491      526.00482     -78224.486      190.29709      188.07082      637.84538    
     65800  -78701.963      529.41757     -78172.545      190.28225      188.05618      638.08544    
     65900  -78646.316      526.14117     -78120.175      190.26456      188.03852      638.3255     
     66000  -78592.563      525.74631     -78066.817      190.24477      188.01801      638.56556    
     66100  -78542.605      529.21545     -78013.39       190.22955      188.003        638.80563    
     66200  -78481.142      521.76661     -77959.376      190.215        187.98764      639.04569    
     66300  -78435.546      528.48487     -77907.061      190.19538      187.96722      639.28575    
     66400  -78380.136      526.59203     -77853.544      190.17848      187.94943      639.52581    
     66500  -78328.678      528.64664     -77800.031      190.16525      187.93483      639.76587    
     66600  -78272.138      525.08099     -77747.057      190.14818      187.91666      640.00594    
     66700  -78218.145      526.50343     -77691.641      190.13038      187.89724      640.246      
     66800  -78162.819      524.50336     -77638.316      190.11596      187.88084      640.48606    
     66900  -78109.352      525.74586     -77583.607      190.10072      187.86398      640.72612    
     67000  -78053.593      524.15388     -77529.439      190.08422      187.84525      640.96619    
     67100  -78000.595      526.97704     -77473.618      190.06878      187.82749      641.20625    
     67200  -77940.791      523.09504     -77417.696      190.0545       187.81105      641.44631    
     67300  -77888.996      527.01276     -77361.984      190.03986      187.79337      641.68637    
     67400  -77834.33       527.65321     -77306.677      190.0245       187.77547      641.92643    
     67500  -77780.934      530.07713     -77250.857      190.00981      187.75778      642.1665     
     67600  -77725.319      530.22917     -77195.09       189.99528      187.74063      642.40656    
     67700  -77659.809      521.14423     -77138.665      189.98124      187.72401      642.64662    
     67800  -77607.7        525.70013     -77082          189.9665       187.70615      642.88668    
     67900  -77552.501      527.82361     -77024.678      189.95167      187.68879      643.12675    
     68000  -77490.654      523.18181     -76967.472      189.93824      187.67187      643.36681    
     68100  -77442.223      531.98362     -76910.239      189.92389      187.65494      643.60687    
     68200  -77384.93       532.84996     -76852.08       189.90997      187.63846      643.84693    
     68300  -77317.748      523.87851     -76793.87       189.89668      187.62144      644.087      
     68400  -77263.527      527.88941     -76735.637      189.88205      187.60486      644.32706    
     68500  -77200.687      524.03495     -76676.652      189.86882      187.58796      644.56712    
     68600  -77143.996      525.53807     -76618.458      189.85637      187.57271      644.80718    
     68700  -77086.538      526.01462     -76560.524      189.84257      187.55665      645.04724    
     68800  -77033.365      532.20247     -76501.162      189.82817      187.53891      645.28731    
     68900  -76969.717      527.56694     -76442.15       189.81553      187.52445      645.52737    
     69000  -76911.804      530.4618      -76381.343      189.8044       187.51024      645.76743    
     69100  -76848.622      527.66561     -76320.956      189.78958      187.49269      646.00749    
     69200  -76790.187      529.93671     -76260.251      189.77488      187.47633      646.24756    
     69300  -76727.172      527.70061     -76199.472      189.76511      187.46346      646.48762    
     69400  -76661.611      523.24461     -76138.366      189.7519       187.44854      646.72768    
     69500  -76607.398      531.72849     -76075.67       189.73644      187.43153      646.96774    
     69600  -76545.75       531.9085      -76013.841      189.72573      187.41802      647.2078     
     69700  -76480.803      528.89792     -75951.905      189.71466      187.40598      647.44787    
     69800  -76420.598      529.50184     -75891.096      189.70005      187.39007      647.68793    
     69900  -76365.144      535.05069     -75830.093      189.68677      187.3752       647.92799    
     70000  -76294.173      525.4656      -75768.707      189.67601      187.36383      648.16805    
     70100  -76235.8        530.12795     -75705.672      189.66363      187.3504       648.40812    
     70200  -76173.94       532.29824     -75641.642      189.64914      187.33511      648.64818    
     70300  -76112.973      533.86661     -75579.107      189.63714      187.32301      648.88824    
     70400  -76044.503      530.76209     -75513.741      189.62685      187.31185      649.1283     
     70500  -75980.714      530.09534     -75450.619      189.61347      187.29808      649.36836    
     70600  -75921.653      534.23885     -75387.414      189.59944      187.28482      649.60843    
     70700  -75857.725      536.57536     -75321.15       189.58927      187.27365      649.84849    
     70800  -75789.433      533.24361     -75256.19       189.5777       187.26304      650.08855    
     70900  -75727.638      535.84151     -75191.797      189.56363      187.24973      650.32861    
     71000  -75662.805      535.16238     -75127.643      189.55168      187.23761      650.56868    
     71100  -75596.013      533.72139     -75062.291      189.54118      187.22848      650.80874    
     71200  -75529.136      531.28937     -74997.846      189.52878      187.21702      651.0488     
     71300  -75470.741      535.70562     -74935.035      189.51571      187.20437      651.28886    
     71400  -75404.125      537.26046     -74866.864      189.50464      187.19509      651.52892    
     71500  -75336.84       538.01825     -74798.822      189.49446      187.18583      651.76899    
     71600  -75271.546      537.84007     -74733.706      189.4811       187.17377      652.00905    
     71700  -75200.7        536.4144      -74664.286      189.46822      187.16267      652.24911    
     71800  -75133.395      538.46015     -74594.935      189.4586       187.15411      652.48917    
     71900  -75064.731      539.18613     -74525.545      189.44684      187.1445       652.72924    
     72000  -74996.107      538.27085     -74457.836      189.43359      187.13257      652.9693     
     72100  -74924.121      539.28447     -74384.836      189.42294      187.12371      653.20936    
     72200  -74865.558      547.33999     -74318.218      189.41318      187.11591      653.44942    
     72300  -74795.65       543.6685      -74251.981      189.40106      187.10517      653.68948    
     72400  -74728.143      546.13416     -74182.009      189.38882      187.09541      653.92955    
     72500  -74657.19       543.37961     -74113.81       189.37895      187.08733      654.16961    
     72600  -74588.264      546.52105     -74041.743      189.36854      187.07861      654.40967    
[...]
     81600  -97654.158      631.77667     -97022.381      190.01846      188.56068      676.01527    
     81700  -97863.434      614.3279      -97249.106      190.04325      188.59253      676.25534    
     81800  -98054.551      597.3974      -97457.154      190.06844      188.62415      676.4954     
     81900  -98227.657      581.0992      -97646.558      190.09373      188.65527      676.73546    
     82000  -98382.635      565.58284     -97817.052      190.11987      188.68673      676.97552    
     82100  -98519.079      550.93726     -97968.142      190.14711      188.71877      677.21558    
     82200  -98636.647      537.56157     -98099.086      190.17498      188.75098      677.45565    
     82300  -98734.417      525.69521     -98208.722      190.2038       188.78381      677.69571    
     82400  -98811.745      516.30553     -98295.439      190.23394      188.81777      677.93577    
     82500  -98869.726      511.90336     -98357.823      190.26421      188.85134      678.17583    
     82600  -98910.639      513.0566      -98397.582      190.29359      188.88343      678.4159     
     82700  -98933.827      514.19294     -98419.634      190.32331      188.91578      678.65596    
     82800  -98938.89       512.46969     -98426.42       190.35297      188.94815      678.89602    
     82900  -98924.564      509.41063     -98415.153      190.38135      188.9792       679.13608    
     83000  -98887.974      506.82421     -98381.15       190.40598      189.00644      679.37614    
     83100  -98825.497      502.79216     -98322.705      190.42866      189.03136      679.61621    
     83200  -98735.218      493.97331     -98241.245      190.45275      189.05767      679.85627    
     83300  -98618.035      479.31141     -98138.724      190.47438      189.08125      680.09633    
     83400  -98478.856      460.5502      -98018.306      190.49351      189.10186      680.33639    
     83500  -98320.329      434.97478     -97885.355      190.51441      189.1241       680.57646    
     83600  -98182.731      439.58026     -97743.15       190.53176      189.14282      680.81652    
     83700  -98103.54       506.75239     -97596.788      190.53474      189.14783      681.05658    
     83800  -98068.764      584.34829     -97484.416      190.52043      189.13651      681.29664    
     83900  -98091.542      595.11423     -97496.428      190.49733      189.11449      681.5367     
     84000  -98132.297      512.09458     -97620.203      190.48309      189.09771      681.77677    
     84100  -98157.406      465.59001     -97691.816      190.48197      189.09602      682.01683    
     84200  -98157.82       493.4414      -97664.379      190.49855      189.10754      682.25689    
     84300  -98145.945      556.92071     -97589.024      190.49953      189.1123       682.49695    
     84400  -98134.893      560.17589     -97574.717      190.5023       189.1117       682.73702    
     84500  -98160.714      524.82719     -97635.887      190.52227      189.12674      682.97708    
     84600  -98194.882      498.78755     -97696.094      190.5484       189.15022      683.21714    
     84700  -98203.115      492.42416     -97710.691      190.57269      189.16742      683.4572     
     84800  -98204.316      525.50903     -97678.807      190.60616      189.20051      683.69727    
     84900  -98216.45       556.23263     -97660.218      190.63918      189.22239      683.93733    
     85000  -98232.597      530.94395     -97701.653      190.66045      189.22955      684.17739    
     85100  -98254.924      497.95228     -97756.971      190.6678       189.23501      684.41745    
     85200  -98266.976      497.29258     -97769.683      190.67812      189.24665      684.65751    
     85300  -98251.17       516.41737     -97734.752      190.69053      189.25863      684.89758    
     85400  -98238.942      542.99004     -97695.952      190.70189      189.26995      685.13764    
     85500  -98244.804      543.99029     -97700.813      190.71777      189.27918      685.3777     
     85600  -98261.062      518.30785     -97742.754      190.73624      189.28814      685.61776    
     85700  -98267.502      496.39162     -97771.111      190.75368      189.30535      685.85783    
     85800  -98267.542      509.5084      -97758.034      190.77474      189.32217      686.09789    
     85900  -98262.418      538.46902     -97723.949      190.78841      189.34374      686.33795    
     86000  -98270.278      551.3559      -97718.922      190.82014      189.37726      686.57801    
     86100  -98293.774      531.55774     -97762.216      190.85201      189.40757      686.81807    
     86200  -98310.306      497.51458     -97812.792      190.87428      189.43852      687.05814    
     86300  -98313.512      493.52415     -97819.988      190.90003      189.47745      687.2982     
     86400  -98303.58       526.00664     -97777.574      190.91351      189.51105      687.53826    
     86500  -98286.402      544.81608     -97741.586      190.92666      189.55008      687.77832    
     86600  -98294.283      541.18193     -97753.101      190.9419       189.58306      688.01839    
     86700  -98317.107      515.74206     -97801.365      190.96186      189.61465      688.25845    
     86800  -98332.469      502.40128     -97830.067      190.98768      189.65734      688.49851    
     86900  -98330.812      514.77281     -97816.039      191.0085       189.70093      688.73857    
     87000  -98314.524      531.70142     -97782.823      191.01611      189.73721      688.97863    
     87100  -98312.747      545.55419     -97767.193      191.02955      189.77536      689.2187     
     87200  -98319.371      525.407       -97793.964      191.04737      189.82383      689.45876    
     87300  -98331.159      507.54347     -97823.616      191.05589      189.86471      689.69882    
     87400  -98328.607      507.54716     -97821.06       191.066        189.89882      689.93888    
     87500  -98323.425      532.09561     -97791.329      191.09216      189.9421       690.17895    
     87600  -98311.909      538.77072     -97773.139      191.10733      189.98115      690.41901    
     87700  -98317.337      527.10606     -97790.23       191.11204      190.01549      690.65907    
     87800  -98338.943      516.92035     -97822.022      191.12422      190.0652       690.89913    
     87900  -98342.085      504.01652     -97838.068      191.14189      190.11493      691.13919    
     88000  -98336.524      511.71686     -97824.807      191.15684      190.15001      691.37926    
     88100  -98327.006      531.9515      -97795.055      191.16544      190.18609      691.61932    
     88200  -98316.319      534.29186     -97782.028      191.17802      190.23112      691.85938    
     88300  -98323.804      530.75546     -97793.049      191.18807      190.27069      692.09944    
     88400  -98334.577      518.57863     -97815.998      191.19977      190.30456      692.33951    
     88500  -98339.073      510.39245     -97828.68       191.21165      190.34179      692.57957    
     88600  -98329.287      505.07049     -97824.217      191.21948      190.37454      692.81963    
     88700  -98326.736      523.61578     -97803.12       191.2308       190.40139      693.05969    
     88800  -98317.645      531.30187     -97786.343      191.24481      190.43827      693.29975    
     88900  -98320.368      532.39842     -97787.969      191.24975      190.47221      693.53982    
     89000  -98332.839      523.8421      -97808.997      191.25294      190.503        693.77988    
     89100  -98337.377      510.95886     -97826.418      191.26486      190.5348       694.01994    
     89200  -98338.036      513.22273     -97824.813      191.27225      190.56691      694.26       
     89300  -98339.949      528.06043     -97811.888      191.26956      190.5967       694.50007    
     89400  -98333.953      529.40676     -97804.546      191.27266      190.62744      694.74013    
     89500  -98334.15       524.24787     -97809.902      191.27696      190.65423      694.98019    
     89600  -98339.154      516.65211     -97822.502      191.27775      190.67013      695.22025    
     89700  -98348.191      518.30738     -97829.884      191.28451      190.70052      695.46031    
     89800  -98350.994      522.80283     -97828.191      191.29696      190.73015      695.70038    
     89900  -98352.761      527.0576      -97825.703      191.30546      190.73853      695.94044    
     90000  -98344.159      517.60655     -97826.552      191.31284      190.74665      696.1805     
     90100  -98348.87       522.74293     -97826.127      191.31672      190.75993      696.42056    
     90200  -98342.381      516.3088      -97826.073      191.32745      190.77224      696.66063    
     90300  -98346.761      521.62588     -97825.135      191.34091      190.78264      696.90069    
     90400  -98347.033      523.09214     -97823.941      191.35228      190.79108      697.14075    
     90500  -98350.041      524.04958     -97825.991      191.36556      190.79529      697.38081    
     90600  -98351.829      523.13632     -97828.693      191.37415      190.80387      697.62088    
     90700  -98351.785      523.43398     -97828.351      191.37318      190.81146      697.86094    
     90800  -98346.096      519.61707     -97826.479      191.37821      190.81858      698.101      
     90900  -98349.986      524.4559      -97825.53       191.38621      190.82369      698.34106    
     91000  -98354.688      524.38901     -97830.299      191.38936      190.83181      698.58112    
     91100  -98351.642      515.87874     -97835.763      191.39551      190.8387       698.82119    
     91200  -98359.713      523.33913     -97836.373      191.40009      190.84351      699.06125    
     91300  -98361.25       523.76023     -97837.49       191.40561      190.85112      699.30131    
     91400  -98359.248      518.20161     -97841.046      191.41258      190.85867      699.54137    
     91500  -98361.129      518.57893     -97842.55       191.41417      190.8631       699.78144    
     91600  -98361.552      522.14226     -97839.41       191.41862      190.86814      700.0215     
     91700  -98361.367      525.26269     -97836.104      191.42576      190.87359      700.26156    
     91800  -98360.212      523.96265     -97836.25       191.4238       190.88028      700.50162    
     91900  -98365.469      527.22323     -97838.246      191.41885      190.88515      700.74168    
     92000  -98367.219      521.22831     -97845.991      191.41481      190.88581      700.98175    
     92100  -98372.095      518.738       -97853.357      191.40788      190.88109      701.22181    
     92200  -98375.778      523.42233     -97852.356      191.40294      190.88235      701.46187    
     92300  -98370.067      521.84465     -97848.223      191.39839      190.88769      701.70193    
     92400  -98369.033      525.30247     -97843.731      191.38389      190.88704      701.942      
     92500  -98363.576      523.4887      -97840.087      191.36478      190.88086      702.18206    
     92600  -98362.485      524.37742     -97838.107      191.35704      190.87866      702.42212    
     92700  -98368.239      529.02342     -97839.216      191.34388      190.8804       702.66218    
     92800  -98365.479      523.30989     -97842.17       191.32238      190.88345      702.90224    
     92900  -98362.172      519.55769     -97842.614      191.30665      190.8863       703.14231    
     93000  -98366.495      527.97261     -97838.522      191.2918       190.88463      703.38237    
     93100  -98363.721      524.68511     -97839.036      191.27222      190.87742      703.62243    
     93200  -98366.351      521.80037     -97844.551      191.2484       190.87017      703.86249    
     93300  -98367.07       516.73178     -97850.339      191.22831      190.86641      704.10256    
     93400  -98367.405      514.88546     -97852.519      191.20934      190.86129      704.34262    
     93500  -98368.826      520.0656      -97848.761      191.18671      190.84843      704.58268    
     93600  -98368.287      524.81153     -97843.475      191.1664       190.83897      704.82274    
     93700  -98368.62       525.94727     -97842.673      191.14572      190.8342       705.0628     
     93800  -98371.066      520.65829     -97850.408      191.12628      190.82381      705.30287    
     93900  -98375.657      515.25604     -97860.401      191.11149      190.8088       705.54293    
     94000  -98378.064      514.78574     -97863.278      191.09885      190.79391      705.78299    
     94100  -98375.107      517.20948     -97857.898      191.08299      190.7817       706.02305    
     94200  -98374.039      524.4647      -97849.575      191.06667      190.76698      706.26312    
     94300  -98378.837      531.10567     -97847.731      191.05568      190.75204      706.50318    
     94400  -98378.802      521.72992     -97857.072      191.04427      190.73386      706.74324    
     94500  -98391.184      523.09745     -97868.087      191.03342      190.71696      706.9833     
     94600  -98387.655      518.53555     -97869.119      191.02243      190.69876      707.22336    
     94700  -98383.022      521.74808     -97861.274      191.01219      190.67457      707.46343    
     94800  -98377.38       524.68638     -97852.694      190.99723      190.6462       707.70349    
     94900  -98376.001      523.42815     -97852.572      190.98714      190.61409      707.94355    
     95000  -98380.625      520.83229     -97859.792      190.98283      190.57605      708.18361    
     95100  -98386.481      518.44663     -97868.034      190.9777       190.53449      708.42368    
     95200  -98381.811      514.09576     -97867.715      190.9656       190.48383      708.66374    
     95300  -98378.375      522.34307     -97856.032      190.95693      190.42486      708.9038     
     95400  -98368.956      525.81082     -97843.145      190.95426      190.36925      709.14386    
     95500  -98368.815      529.24455     -97839.57       190.94681      190.31533      709.38392    
     95600  -98373.72       524.98246     -97848.738      190.94119      190.2617       709.62399    
     95700  -98372.047      513.28085     -97858.767      190.94039      190.20354      709.86405    
     95800  -98372.07       514.34752     -97857.723      190.93594      190.14462      710.10411    
     95900  -98374.759      524.92564     -97849.833      190.93518      190.09067      710.34417    
     96000  -98370.475      523.93875     -97846.536      190.93926      190.0387       710.58424    
     96100  -98379.073      526.1321      -97852.94       190.94029      189.98659      710.8243     
     96200  -98385.932      520.85796     -97865.074      190.93837      189.9297       711.06436    
     96300  -98386.181      516.59067     -97869.59       190.94003      189.87192      711.30442    
     96400  -98384.156      521.23769     -97862.918      190.94237      189.82301      711.54449    
     96500  -98377.855      522.29981     -97855.555      190.93538      189.78006      711.78455    
     96600  -98383.638      530.30114     -97853.337      190.92767      189.73929      712.02461    
     96700  -98381.852      522.62191     -97859.23       190.92307      189.69846      712.26467    
     96800  -98386.166      517.57903     -97868.587      190.92106      189.6577       712.50473    
     96900  -98388.753      517.91487     -97870.839      190.91863      189.62089      712.7448     
     97000  -98384.152      520.52186     -97863.63       190.9148       189.588        712.98486    
     97100  -98383.396      526.08747     -97857.308      190.90943      189.55889      713.22492    
     97200  -98387.074      526.89034     -97860.183      190.90042      189.53609      713.46498    
     97300  -98398.517      527.36153     -97871.155      190.88599      189.51547      713.70505    
     97400  -98403.806      519.01469     -97884.791      190.87074      189.50731      713.94511    
     97500  -98409.927      518.05362     -97891.873      190.85607      189.50901      714.18517    
     97600  -98411.85       520.94803     -97890.902      190.83627      189.5066       714.42523    
     97700  -98420.09       528.90375     -97891.186      190.81681      189.50414      714.66529    
     97800  -98427.996      528.99351     -97899.003      190.80009      189.50402      714.90536    
     97900  -98436.745      523.3683      -97913.377      190.77578      189.50047      715.14542    
     98000  -98445.232      518.92653     -97926.305      190.75351      189.50041      715.38548    
     98100  -98446.991      514.46506     -97932.526      190.73703      189.50519      715.62554    
     98200  -98452.958      521.71723     -97931.241      190.71426      189.50734      715.86561    
     98300  -98453.218      522.87052     -97930.348      190.68932      189.5035       716.10567    
     98400  -98456.662      523.02021     -97933.642      190.66685      189.49805      716.34573    
     98500  -98452.159      515.81321     -97936.346      190.64509      189.49133      716.58579    
     98600  -98449.436      520.48355     -97928.952      190.62035      189.48136      716.82585    
     98700  -98435.118      522.33099     -97912.787      190.60162      189.47358      717.06592    
     98800  -98427.697      528.01286     -97899.684      190.58321      189.46756      717.30598    
     98900  -98425.885      527.55376     -97898.331      190.55898      189.45824      717.54604    
     99000  -98426.1        520.41823     -97905.681      190.54292      189.44982      717.7861     
     99100  -98429.99       517.68085     -97912.309      190.53774      189.4428       718.02617    
     99200  -98438.836      525.78504     -97913.051      190.52425      189.42899      718.26623    
     99300  -98438.394      523.67071     -97914.723      190.51521      189.41493      718.50629    
     99400  -98440.105      520.5037      -97919.601      190.51314      189.402        718.74635    
     99500  -98438.6        517.56752     -97921.033      190.51195      189.38627      718.98641    
     99600  -98435.989      518.54572     -97917.443      190.51314      189.36802      719.22648    
     99700  -98427.506      521.00032     -97906.506      190.51889      189.3518       719.46654    
     99800  -98430.884      534.83112     -97896.053      190.52272      189.3374       719.7066     
     99900  -98424.404      523.11437     -97901.289      190.52359      189.3151       719.94666    
    100000  -98421.168      513.33997     -97907.828      190.52432      189.28812      720.18673    
Loop time of 5643.35 on 12 procs for 100000 steps with 13464 atoms

Performance: 1.531 ns/day, 15.676 hours/ns, 17.720 timesteps/s, 238.582 katom-step/s
76.9% CPU use with 12 MPI tasks x 1 OpenMP threads

MPI task timing breakdown:
Section |  min time  |  avg time  |  max time  |%varavg| %total
---------------------------------------------------------------
Pair    | 1637.5     | 1941.6     | 2351.9     | 472.6 | 34.41
Neigh   | 6.8205     | 9.4405     | 12.378     |  68.3 |  0.17
Comm    | 1128.8     | 1507.2     | 1768.4     | 506.6 | 26.71
Output  | 5.0416     | 5.2932     | 5.6217     |   8.4 |  0.09
Modify  | 2007.6     | 2043.3     | 2096.4     |  60.6 | 36.21
Other   |            | 136.6      |            |       |  2.42

Nlocal:           1122 ave        2181 max         471 min
Histogram: 2 0 4 1 2 1 0 1 0 1
Nghost:        3451.08 ave        5539 max        2095 min
Histogram: 4 0 3 1 0 0 0 0 3 1
Neighs:              0 ave           0 max           0 min
Histogram: 12 0 0 0 0 0 0 0 0 0

Total # of neighbors = 0
Ave neighs/atom = 0
Neighbor list builds = 626
Dangerous builds = 0
Total wall time: 1:34:04
