LAMMPS (2 Aug 2023 - Update 3)
OMP_NUM_THREADS environment is not set. Defaulting to 1 thread. (src/comm.cpp:98)
  using 1 OpenMP thread(s) per MPI task
Reading data file ...
  orthogonal box = (-100 -100 -2.3312511) to (100 100 38.891558)
  3 by 4 by 1 MPI processor grid
  reading atoms ...
  784 atoms
  read_data CPU = 0.820 seconds
240 atoms in group SR
Deleted 240 atoms, new total = 544
Replication is creating a 1x1x3 = 3 times larger system...
  orthogonal box = (-100 -100 -2.3312511) to (100 100 121.33718)
  2 by 3 by 2 MPI processor grid
  1632 atoms
  replicate CPU = 0.872 seconds
System init for write_data ...
WARNING: Communication cutoff is 0.0. No ghost atoms will be generated. Atoms may get lost. (src/comm_brick.cpp:210)
Reading airebo potential file CH.airebo with DATE: 2011-10-25
Reading airebo potential file CH.airebo with DATE: 2011-10-25
Neighbor list info ...
  update: every = 1 steps, delay = 0 steps, check = yes
  max neighbors/atom: 2000, page size: 100000
  master list distance cutoff = 13.2
  ghost atom cutoff = 13.2
  binsize = 6.6, bins = 31 31 19
  5 neighbor lists, perpetual/occasional/extra = 5 0 0
  (1) pair airebo, perpetual, skip from (4)
      attributes: full, newton on, ghost
      pair build: skip/ghost
      stencil: none
      bin: none
  (2) pair airebo, perpetual, skip from (4)
      attributes: full, newton on, ghost
      pair build: skip/ghost
      stencil: none
      bin: none
  (3) pair lj/cut, perpetual, skip from (5)
      attributes: half, newton on, cut 13
      pair build: skip
      stencil: none
      bin: none
  (4) neighbor class addition, perpetual
      attributes: full, newton on, ghost
      pair build: full/bin/ghost
      stencil: full/ghost/bin/3d
      bin: standard
  (5) neighbor class addition, perpetual
      attributes: half, newton on, cut 13
      pair build: half/bin/atomonly/newton
      stencil: half/bin/3d
      bin: standard
Setting up sd style minimization ...
  Unit style    : metal
  Current step  : 0
Per MPI rank memory allocation (min/avg/max) = 8.27 | 8.587 | 9.222 Mbytes
   Step          Temp          E_pair         E_mol          TotEng         Press     
         0   0             -12051.856      0             -12051.856      30.842369    
         1   0             -12051.989      0             -12051.989      30.157447    
Loop time of 1.07034 on 12 procs for 1 steps with 1632 atoms

37.6% CPU use with 12 MPI tasks x 1 OpenMP threads

Minimization stats:
  Stopping criterion = energy tolerance
  Energy initial, next-to-last, final = 
     -12051.8561302654  -12051.8561302654  -12051.9887176908
  Force two-norm initial, final = 6.0249765 1.2921817
  Force max component initial, final = 0.14888908 0.031904291
  Final line search alpha, max atom move = 0.67164094 0.021428228
  Iterations, force evaluations = 1 2

MPI task timing breakdown:
Section |  min time  |  avg time  |  max time  |%varavg| %total
---------------------------------------------------------------
Pair    | 8.566e-06  | 0.012675   | 0.062872   |  18.1 |  1.18
Neigh   | 0          | 0          | 0          |   0.0 |  0.00
Comm    | 3.046e-06  | 0.071011   | 0.23925    |  37.9 |  6.63
Output  | 0          | 0          | 0          |   0.0 |  0.00
Modify  | 0          | 0          | 0          |   0.0 |  0.00
Other   |            | 0.9866     |            |       | 92.18

Nlocal:            136 ave         434 max           0 min
Histogram: 8 0 0 0 0 0 0 0 2 2
Nghost:            248 ave         770 max           0 min
Histogram: 8 0 0 0 0 0 0 0 0 4
Neighs:              0 ave           0 max           0 min
Histogram: 12 0 0 0 0 0 0 0 0 0

Total # of neighbors = 0
Ave neighs/atom = 0
Neighbor list builds = 0
Dangerous builds = 0
Setting up Verlet run ...
  Unit style    : metal
  Current step  : 1
  Time step     : 0.001
Per MPI rank memory allocation (min/avg/max) = 8.895 | 9.212 | 9.847 Mbytes
   Step          Temp          E_pair         E_mol          TotEng         Press          Volume    
         1   300           -12051.989      0             -11988.742      43.813969      4946737.1    
Loop time of 0.0550029 on 12 procs for 0 steps with 1632 atoms

35.7% CPU use with 12 MPI tasks x 1 OpenMP threads

MPI task timing breakdown:
Section |  min time  |  avg time  |  max time  |%varavg| %total
---------------------------------------------------------------
Pair    | 0          | 0          | 0          |   0.0 |  0.00
Neigh   | 0          | 0          | 0          |   0.0 |  0.00
Comm    | 0          | 0          | 0          |   0.0 |  0.00
Output  | 0          | 0          | 0          |   0.0 |  0.00
Modify  | 0          | 0          | 0          |   0.0 |  0.00
Other   |            | 0.055      |            |       |100.00

Nlocal:            136 ave         408 max           0 min
Histogram: 8 0 0 0 0 0 0 0 0 4
Nghost:            248 ave         744 max           0 min
Histogram: 8 0 0 0 0 0 0 0 0 4
Neighs:              0 ave           0 max           0 min
Histogram: 12 0 0 0 0 0 0 0 0 0

Total # of neighbors = 0
Ave neighs/atom = 0
Neighbor list builds = 0
Dangerous builds = 0
WARNING: New thermo_style command, previous thermo_modify settings will be lost (src/output.cpp:903)
WARNING: Dump 2 includes no atom IDs and is not sorted by ID. This may complicate post-processing tasks or visualization (src/dump.cpp:221)
Setting up Verlet run ...
  Unit style    : metal
  Current step  : 0
  Time step     : 0.001
Per MPI rank memory allocation (min/avg/max) = 10.4 | 10.71 | 11.35 Mbytes
   Step         PotEng         KinEng         TotEng           Lx             Ly             Lz      
         0  -12051.989      63.246989     -11988.742      200            200            123.66843    
       100  -12015.595      32.969116     -11982.626      200.00244      200.00137      123.73026    
       200  -12012.861      39.338883     -11973.523      199.99878      199.99706      123.7921     
       300  -12007.383      44.761566     -11962.621      199.98886      199.98735      123.85393    
       400  -12002.64       51.768207     -11950.872      199.99264      199.99216      123.91576    
       500  -11996.676      57.615501     -11939.061      199.98195      199.98357      123.9776     
       600  -11991.592      62.94965      -11928.642      199.97517      199.98053      124.03943    
       700  -11985.563      63.993938     -11921.569      199.97526      199.98603      124.10127    
       800  -11984.631      65.125625     -11919.505      199.95765      199.97464      124.1631     
       900  -11987.985      64.375789     -11923.609      199.95546      199.97943      124.22494    
      1000  -11989.005      60.296076     -11928.709      199.94764      199.97786      124.28677    
      1100  -11990.982      61.096817     -11929.885      199.93274      199.96802      124.3486     
      1200  -11986.852      59.979969     -11926.872      199.93382      199.97315      124.41044    
      1300  -11987.784      65.210661     -11922.573      199.92202      199.964        124.47227    
      1400  -11988.311      67.798603     -11920.513      199.91415      199.95641      124.53411    
      1500  -11987.082      64.448971     -11922.633      199.91522      199.95657      124.59594    
      1600  -11987.096      61.063348     -11926.032      199.9026       199.94236      124.65778    
      1700  -11988.54       61.383943     -11927.156      199.90027      199.93822      124.71961    
      1800  -11986.758      61.56134      -11925.197      199.89562      199.93257      124.78144    
      1900  -11984.15       62.668846     -11921.481      199.88447      199.92254      124.84328    
      2000  -11985.329      65.732019     -11919.597      199.88059      199.92117      124.90511    
      2100  -11984.115      63.68996      -11920.425      199.86896      199.91387      124.96695    
      2200  -11985.166      62.561725     -11922.604      199.85856      199.90986      125.02878    
      2300  -11985.023      61.169834     -11923.853      199.84885      199.90678      125.09061    
      2400  -11984.897      62.772514     -11922.125      199.83781      199.90212      125.15245    
      2500  -11983.289      64.124456     -11919.165      199.82657      199.89684      125.21428    
      2600  -11981.985      64.470236     -11917.515      199.81642      199.891        125.27612    
      2700  -11981.776      63.998492     -11917.778      199.80799      199.88604      125.33795    
      2800  -11982.64       63.433653     -11919.207      199.79565      199.87599      125.39979    
      2900  -11981.136      61.13115      -11920.005      199.78738      199.86905      125.46162    
      3000  -11982.435      63.888742     -11918.546      199.77923      199.86228      125.52345    
      3100  -11980.34       64.144997     -11916.195      199.76674      199.85057      125.58529    
      3200  -11978.85       64.029033     -11914.821      199.76062      199.84522      125.64712    
      3300  -11978.747      63.719489     -11915.028      199.74869      199.83416      125.70896    
      3400  -11977.373      61.571398     -11915.802      199.73727      199.82509      125.77079    
      3500  -11978.849      63.052342     -11915.796      199.72919      199.81965      125.83263    
      3600  -11975.177      61.041516     -11914.136      199.71345      199.80624      125.89446    
      3700  -11975.57       63.618705     -11911.951      199.70509      199.80157      125.95629    
      3800  -11974.667      64.002991     -11910.664      199.69233      199.79288      126.01813    
      3900  -11974.257      63.339795     -11910.918      199.67643      199.7811       126.07996    
      4000  -11974.531      62.959419     -11911.571      199.66738      199.77713      126.1418     
      4100  -11972.275      60.958056     -11911.317      199.64928      199.76403      126.20363    
      4200  -11972.13       62.560131     -11909.57       199.63771      199.75761      126.26546    
      4300  -11971.998      65.154291     -11906.844      199.62339      199.74855      126.3273     
      4400  -11969.734      64.42073      -11905.314      199.60654      199.73555      126.38913    
      4500  -11969.946      63.388166     -11906.558      199.59717      199.72879      126.45097    
      4600  -11968.817      61.157975     -11907.659      199.57978      199.71319      126.5128     
      4700  -11968.524      62.230729     -11906.294      199.56827      199.70295      126.57464    
      4800  -11967.738      63.416672     -11904.322      199.55563      199.69096      126.63647    
      4900  -11967.163      64.18232      -11902.981      199.53839      199.67512      126.6983     
      5000  -11966.272      64.206906     -11902.065      199.5296       199.6674       126.76014    
      5100  -11964.668      63.366862     -11901.301      199.50935      199.64918      126.82197    
      5200  -11963.991      63.381195     -11900.61       199.49614      199.63994      126.88381    
      5300  -11962.027      62.983061     -11899.044      199.48051      199.62892      126.94564    
      5400  -11961.358      64.533096     -11896.825      199.45918      199.61258      127.00748    
      5500  -11961.394      65.750337     -11895.644      199.4467       199.60643      127.06931    
      5600  -11959.987      63.466018     -11896.521      199.42275      199.5883       127.13114    
      5700  -11960.064      62.626845     -11897.437      199.40662      199.57804      127.19298    
      5800  -11958.74       63.132594     -11895.608      199.38897      199.56623      127.25481    
      5900  -11956.271      65.316275     -11890.955      199.36548      199.54755      127.31665    
      6000  -11954.64       65.011661     -11889.628      199.35242      199.53896      127.37848    
      6100  -11954.631      64.262668     -11890.368      199.32956      199.51987      127.44031    
      6200  -11953.011      62.20727      -11890.804      199.31175      199.50494      127.50215    
      6300  -11952.979      63.338797     -11889.64       199.29471      199.49057      127.56398    
      6400  -11950.226      64.777829     -11885.448      199.27174      199.46963      127.62582    
      6500  -11946.78       64.323529     -11882.456      199.25753      199.45669      127.68765    
      6600  -11945.723      62.977992     -11882.745      199.23488      199.43613      127.74949    
      6700  -11947.53       64.392326     -11883.138      199.21501      199.41824      127.81132    
      6800  -11946.734      64.24445      -11882.489      199.19597      199.40109      127.87315    
      6900  -11944.389      63.416786     -11880.973      199.17158      199.3802       127.93499    
      7000  -11940.886      63.074151     -11877.812      199.15173      199.36488      127.99682    
      7100  -11940.218      66.630065     -11873.588      199.12691      199.34427      128.05866    
      7200  -11940.143      66.044187     -11874.099      199.10274      199.326        128.12049    
      7300  -11938.23       63.474064     -11874.756      199.07812      199.30801      128.18233    
      7400  -11936.132      61.72773      -11874.405      199.05112      199.28765      128.24416    
      7500  -11937.089      63.527158     -11873.561      199.02706      199.27012      128.30599    
      7600  -11934.215      61.863345     -11872.352      198.99791      199.24763      128.36783    
      7700  -11933.456      63.300134     -11870.156      198.97447      199.22979      128.42966    
      7800  -11931.09       64.019934     -11867.07       198.94564      199.20641      128.4915     
      7900  -11927.797      62.770348     -11865.026      198.91859      199.18371      128.55333    
      8000  -11928.231      63.236118     -11864.995      198.89364      199.16209      128.61516    
      8100  -11929.486      63.248895     -11866.237      198.86243      199.13444      128.677      
      8200  -11925.333      60.365671     -11864.967      198.83777      199.11386      128.73883    
      8300  -11925.142      63.594722     -11861.548      198.80615      199.08613      128.80067    
      8400  -11922.405      63.69635      -11858.709      198.77616      199.06031      128.8625     
      8500  -11921.159      63.635123     -11857.524      198.74766      199.03733      128.92434    
      8600  -11920.219      63.690375     -11856.529      198.71156      199.00736      128.98617    
      8700  -11918.546      62.561148     -11855.985      198.68254      198.98471      129.048      
      8800  -11918.167      61.797594     -11856.369      198.64655      198.95623      129.10984    
      8900  -11917.36       61.621449     -11855.738      198.61024      198.9283       129.17167    
      9000  -11913.05       62.142872     -11850.907      198.57849      198.90433      129.23351    
      9100  -11911.792      64.402585     -11847.39       198.5382       198.87169      129.29534    
      9200  -11910.08       64.290491     -11845.79       198.50448      198.8458       129.35718    
      9300  -11909.667      63.763274     -11845.904      198.46618      198.81393      129.41901    
      9400  -11907.83       61.924158     -11845.906      198.42764      198.78121      129.48084    
      9500  -11905.182      61.103265     -11844.079      198.39138      198.75094      129.54268    
      9600  -11902.978      64.462703     -11838.516      198.35004      198.71453      129.60451    
      9700  -11901.988      66.123488     -11835.865      198.31334      198.68191      129.66635    
      9800  -11899.714      63.711551     -11836.002      198.27159      198.6449       129.72818    
      9900  -11897.868      61.549499     -11836.319      198.23152      198.60986      129.79001    
     10000  -11896.957      62.271115     -11834.686      198.1893       198.57201      129.85185    
     10100  -11894.95       63.060404     -11831.889      198.14595      198.53422      129.91368    
     10200  -11892.143      63.261279     -11828.881      198.10291      198.49854      129.97552    
     10300  -11890.319      63.284332     -11827.034      198.05446      198.45705      130.03735    
     10400  -11888.655      63.113024     -11825.541      198.01098      198.4219       130.09919    
     10500  -11887.457      63.707471     -11823.75       197.95946      198.38059      130.16102    
     10600  -11884.314      61.666425     -11822.647      197.90996      198.34053      130.22285    
     10700  -11884.169      62.335481     -11821.834      197.86186      198.30223      130.28469    
     10800  -11882.508      62.230286     -11820.278      197.80506      198.25699      130.34652    
     10900  -11880.609      63.574663     -11817.034      197.75624      198.21855      130.40836    
     11000  -11877.135      64.545769     -11812.589      197.70049      198.17181      130.47019    
     11100  -11875.43       65.259115     -11810.17       197.64519      198.12587      130.53203    
     11200  -11874.232      63.598457     -11810.634      197.59441      198.08277      130.59386    
     11300  -11874.433      63.495061     -11810.938      197.53453      198.02851      130.65569    
     11400  -11870.895      62.393127     -11808.502      197.4833       197.98371      130.71753    
     11500  -11867.228      62.480768     -11804.748      197.42435      197.93132      130.77936    
     11600  -11866.222      65.200845     -11801.021      197.36465      197.87753      130.8412     
     11700  -11861.43       62.346296     -11799.084      197.30979      197.83025      130.90303    
     11800  -11862.667      63.221126     -11799.445      197.24201      197.77228      130.96486    
     11900  -11861.156      60.862423     -11800.294      197.18318      197.72315      131.0267     
     12000  -11859.025      62.375507     -11796.65       197.11713      197.6683       131.08853    
     12100  -11854.929      62.794553     -11792.134      197.04778      197.61306      131.15037    
     12200  -11852.982      63.993361     -11788.989      196.98393      197.56352      131.2122     
     12300  -11851.012      63.914042     -11787.098      196.90862      197.50184      131.27404    
     12400  -11849.986      62.092136     -11787.894      196.84317      197.45001      131.33587    
     12500  -11848.175      60.817567     -11787.357      196.76976      197.38986      131.3977     
     12600  -11846.998      63.36364      -11783.634      196.69665      197.32823      131.45954    
     12700  -11842.05       62.128631     -11779.921      196.62963      197.27125      131.52137    
     12800  -11840.608      64.0778       -11776.531      196.55138      197.20261      131.58321    
     12900  -11837.033      63.140578     -11773.893      196.48261      197.14244      131.64504    
     13000  -11835.052      62.401712     -11772.65       196.40742      197.07448      131.70688    
     13100  -11835.894      62.812338     -11773.082      196.32989      197.0051       131.76871    
     13200  -11833.05       62.063035     -11770.987      196.25815      196.94234      131.83054    
     13300  -11828.212      62.309979     -11765.902      196.1747       196.8681       131.89238    
     13400  -11826.488      64.240139     -11762.248      196.09993      196.80335      131.95421    
     13500  -11824.467      63.733723     -11760.733      196.01732      196.73306      132.01605    
     13600  -11822.232      62.379094     -11759.853      195.93218      196.66158      132.07788    
     13700  -11819.916      61.885403     -11758.031      195.85235      196.59664      132.13971    
     13800  -11818.954      64.890872     -11754.063      195.76087      196.52152      132.20155    
     13900  -11813.644      64.218522     -11749.425      195.67821      196.45537      132.26338    
     14000  -11809.935      62.997153     -11746.938      195.5893       196.38239      132.32522    
     14100  -11809.676      62.540635     -11747.136      195.49828      196.30773      132.38705    
     14200  -11808.922      62.74462      -11746.177      195.41379      196.23904      132.44889    
     14300  -11806.158      62.83195      -11743.326      195.31906      196.15837      132.51072    
     14400  -11802.777      62.498831     -11740.278      195.23337      196.0866       132.57255    
     14500  -11800.598      63.439086     -11737.159      195.14157      196.00768      132.63439    
     14600  -11798.48       64.029054     -11734.451      195.04981      195.92684      132.69622    
     14700  -11795.746      63.573052     -11732.173      194.96433      195.85197      132.75806    
     14800  -11792.457      62.599199     -11729.857      194.86806      195.76659      132.81989    
     14900  -11792.034      64.374969     -11727.659      194.78131      195.6901       132.88173    
     15000  -11788.773      62.470894     -11726.302      194.68811      195.60723      132.94356    
     15100  -11786.16       60.920955     -11725.239      194.59353      195.52461      133.00539    
     15200  -11783.69       62.362823     -11721.327      194.50366      195.44707      133.06723    
     15300  -11781.21       65.090901     -11716.119      194.40487      195.36149      133.12906    
     15400  -11777.61       64.351829     -11713.258      194.3128       195.28438      133.1909     
     15500  -11774.815      63.213979     -11711.601      194.21443      195.20169      133.25273    
     15600  -11774.987      63.540187     -11711.447      194.11727      195.12016      133.31457    
     15700  -11771.95       60.473518     -11711.476      194.02266      195.04162      133.3764     
     15800  -11771.028      63.347695     -11707.681      193.92198      194.95743      133.43823    
     15900  -11765.12       61.629087     -11703.491      193.82785      194.87918      133.50007    
     16000  -11761.484      62.242423     -11699.242      193.72957      194.79502      133.5619     
     16100  -11759.316      64.490312     -11694.826      193.6337       194.71291      133.62374    
     16200  -11757.27       65.371575     -11691.898      193.53936      194.63174      133.68557    
     16300  -11753.355      61.689386     -11691.665      193.44188      194.54587      133.7474     
     16400  -11754.169      62.838811     -11691.33       193.34954      194.46471      133.80924    
     16500  -11750.1        62.568676     -11687.532      193.25258      194.37957      133.87107    
     16600  -11744.84       61.871508     -11682.969      193.15823      194.29691      133.93291    
     16700  -11743.039      63.629745     -11679.409      193.06458      194.21498      133.99474    
     16800  -11741.117      64.479959     -11676.637      192.96757      194.13064      134.05658    
     16900  -11738.194      63.572893     -11674.621      192.8744       194.05183      134.11841    
     17000  -11736.27       61.360225     -11674.909      192.77792      193.96963      134.18024    
     17100  -11733.825      60.880953     -11672.944      192.68348      193.89017      134.24208    
     17200  -11729.903      62.478155     -11667.424      192.58919      193.8122       134.30391    
     17300  -11726.378      63.054134     -11663.324      192.49337      193.73264      134.36575    
     17400  -11724.306      64.344354     -11659.962      192.40103      193.65506      134.42758    
     17500  -11721.191      65.007301     -11656.183      192.3064       193.57575      134.48942    
     17600  -11718.191      66.451066     -11651.74       192.21432      193.49903      134.55125    
     17700  -11713.369      65.274672     -11648.094      192.12336      193.4201       134.61308    
     17800  -11712.701      64.30277      -11648.398      192.03312      193.3405       134.67492    
     17900  -11708.937      61.679484     -11647.258      191.94473      193.2636       134.73675    
     18000  -11706.48       62.499826     -11643.98       191.85569      193.18393      134.79859    
     18100  -11703.498      64.201569     -11639.297      191.77001      193.10664      134.86042    
     18200  -11698.499      64.253891     -11634.245      191.68392      193.02947      134.92225    
     18300  -11698.388      66.887466     -11631.5        191.59783      192.95241      134.98409    
     18400  -11694.714      62.407224     -11632.307      191.51375      192.87665      135.04592    
     18500  -11691.913      61.580793     -11630.333      191.42869      192.80185      135.10776    
     18600  -11688.859      62.779375     -11626.079      191.34373      192.72883      135.16959    
     18700  -11684.708      64.045287     -11620.662      191.25912      192.6566       135.23143    
     18800  -11682.674      65.497897     -11617.176      191.175        192.58548      135.29326    
     18900  -11679.241      64.104892     -11615.136      191.09049      192.51497      135.35509    
     19000  -11675.849      62.991511     -11612.857      191.00736      192.44589      135.41693    
     19100  -11672.548      62.394829     -11610.153      190.92516      192.37726      135.47876    
     19200  -11669.128      61.552621     -11607.576      190.84373      192.3084       135.5406     
     19300  -11667.91       63.12831      -11604.781      190.7641       192.24087      135.60243    
     19400  -11664.08       62.928792     -11601.151      190.68503      192.17226      135.66427    
     19500  -11659.208      62.894145     -11596.314      190.60815      192.10474      135.7261     
     19600  -11657.02       65.097734     -11591.922      190.53181      192.03737      135.78793    
     19700  -11655.301      65.134675     -11590.167      190.45631      191.9696       135.84977    
     19800  -11651.136      60.999202     -11590.137      190.38298      191.90305      135.9116     
     19900  -11647.021      60.198301     -11586.822      190.30897      191.83571      135.97344    
     20000  -11643.701      61.542358     -11582.159      190.2371       191.77123      136.03527    
     20100  -11641.873      63.868864     -11578.004      190.16369      191.70612      136.0971     
     20200  -11638.915      64.478078     -11574.437      190.09178      191.64348      136.15894    
     20300  -11635.465      63.717357     -11571.748      190.01937      191.58154      136.22077    
     20400  -11631.924      61.840134     -11570.084      189.94745      191.52063      136.28261    
     20500  -11630.735      62.934135     -11567.801      189.87718      191.46137      136.34444    
     20600  -11627.558      63.367307     -11564.191      189.8057       191.40101      136.40628    
     20700  -11621.053      62.541829     -11558.512      189.73711      191.34367      136.46811    
     20800  -11616.182      62.803985     -11553.378      189.66696      191.28441      136.52994    
     20900  -11615.712      64.700833     -11551.011      189.59892      191.22673      136.59178    
     21000  -11614.782      65.271301     -11549.51       189.53263      191.16947      136.65361    
     21100  -11611.203      64.347041     -11546.856      189.46529      191.10955      136.71545    
     21200  -11607.849      64.359521     -11543.489      189.40215      191.05415      136.77728    
     21300  -11602.693      63.008395     -11539.685      189.33663      190.99515      136.83912    
     21400  -11599.887      65.245496     -11534.641      189.27452      190.93876      136.90095    
     21500  -11595.828      65.494275     -11530.334      189.21312      190.88292      136.96278    
     21600  -11591.999      62.733519     -11529.265      189.14997      190.82508      137.02462    
     21700  -11589.508      61.501538     -11528.006      189.0907       190.77092      137.08645    
     21800  -11587.523      63.228322     -11524.295      189.02866      190.71522      137.14829    
     21900  -11583.181      63.316134     -11519.865      188.96792      190.66207      137.21012    
     22000  -11579.237      65.287301     -11513.95       188.90795      190.60978      137.27195    
     22100  -11572.561      64.915459     -11507.646      188.84571      190.55583      137.33379    
     22200  -11571.724      65.547335     -11506.176      188.78718      190.50673      137.39562    
     22300  -11569.596      64.626887     -11504.969      188.72508      190.4548       137.45746    
     22400  -11567.452      63.978789     -11503.473      188.66573      190.40534      137.51929    
     22500  -11562.095      61.021905     -11501.073      188.60782      190.3567       137.58113    
     22600  -11558.549      61.953087     -11496.596      188.54749      190.30518      137.64296    
     22700  -11554.256      64.437369     -11489.819      188.49272      190.25784      137.70479    
     22800  -11549.82       63.193596     -11486.627      188.43447      190.20692      137.76663    
     22900  -11548.04       63.293452     -11484.747      188.37869      190.15787      137.82846    
     23000  -11544.337      62.049148     -11482.288      188.32412      190.10911      137.8903     
     23100  -11542.143      63.214472     -11478.928      188.26829      190.05778      137.95213    
     23200  -11538.518      63.454348     -11475.064      188.21636      190.01032      138.01397    
     23300  -11534.449      65.381976     -11469.067      188.16183      189.95954      138.0758     
     23400  -11528.708      63.802716     -11464.905      188.10991      189.91187      138.13763    
     23500  -11528.073      64.298869     -11463.774      188.05668      189.86359      138.19947    
     23600  -11524.963      62.691211     -11462.272      188.00335      189.81545      138.2613     
     23700  -11520.92       62.121537     -11458.799      187.95184      189.77028      138.32314    
     23800  -11517.631      63.631927     -11453.999      187.89758      189.723        138.38497    
     23900  -11512.177      64.915879     -11447.261      187.84586      189.67914      138.4468     
     24000  -11507.202      64.454164     -11442.748      187.79185      189.63392      138.50864    
     24100  -11505.237      64.45726      -11440.779      187.7387       189.59035      138.57047    
     24200  -11502.382      62.96347      -11439.419      187.68566      189.54691      138.63231    
     24300  -11500.472      63.208851     -11437.263      187.63267      189.5024       138.69414    
     24400  -11496.879      63.389813     -11433.489      187.5819       189.45962      138.75598    
     24500  -11493.097      66.158158     -11426.939      187.5296       189.41446      138.81781    
     24600  -11487.836      65.939382     -11421.897      187.48128      189.37199      138.87964    
     24700  -11483.011      63.304205     -11419.707      187.4313       189.32612      138.94148    
     24800  -11480.255      62.884575     -11417.37       187.38349      189.28075      139.00331    
     24900  -11477.612      63.380555     -11414.232      187.33719      189.23591      139.06515    
     25000  -11474.401      63.86934      -11410.532      187.2888       189.18825      139.12698    
     25100  -11471.301      65.63597      -11405.665      187.24448      189.14468      139.18882    
     25200  -11465.758      66.035127     -11399.723      187.19595      189.09776      139.25065    
     25300  -11461.316      64.842961     -11396.473      187.14957      189.05464      139.31248    
     25400  -11460.754      65.001533     -11395.752      187.10224      189.01106      139.37432    
     25500  -11456.654      63.25485      -11393.399      187.0529       188.96819      139.43615    
     25600  -11451.954      62.670206     -11389.284      187.00518      188.9285       139.49799    
     25700  -11446.943      63.084018     -11383.859      186.95459      188.88677      139.55982    
     25800  -11443.855      66.122678     -11377.732      186.90593      188.84837      139.62165    
     25900  -11436.709      64.415964     -11372.293      186.85538      188.80897      139.68349    
     26000  -11433.412      64.744761     -11368.667      186.80605      188.76976      139.74532    
     26100  -11430.811      62.314743     -11368.496      186.75749      188.73045      139.80716    
     26200  -11430.095      63.514628     -11366.581      186.70855      188.68878      139.86899    
     26300  -11425.977      63.064101     -11362.912      186.66258      188.64828      139.93083    
     26400  -11421.534      63.921534     -11357.612      186.61623      188.60577      139.99266    
     26500  -11416.571      64.676602     -11351.894      186.57148      188.56341      140.05449    
     26600  -11412.396      65.286888     -11347.109      186.5277       188.51997      140.11633    
     26700  -11408.257      62.722591     -11345.534      186.48479      188.47676      140.17816    
     26800  -11407.104      62.761447     -11344.343      186.44085      188.43295      140.24       
     26900  -11402.43       61.807187     -11340.623      186.39745      188.38999      140.30183    
     27000  -11399.403      64.689267     -11334.714      186.35436      188.34819      140.36367    
     27100  -11393.547      64.724488     -11328.823      186.30867      188.30542      140.4255     
     27200  -11388.922      63.981378     -11324.941      186.26441      188.26525      140.48733    
     27300  -11386.134      64.025696     -11322.108      186.2181       188.22494      140.54917    
     27400  -11383.296      63.670684     -11319.625      186.17142      188.18554      140.611      
     27500  -11380.696      64.482044     -11316.214      186.12488      188.14719      140.67284    
     27600  -11374.144      62.321582     -11311.822      186.0775       188.10843      140.73467    
     27700  -11368.487      62.108626     -11306.378      186.03148      188.07127      140.7965     
     27800  -11365.081      66.604885     -11298.476      185.98394      188.03215      140.85834    
     27900  -11359.842      63.655411     -11296.187      185.93839      187.99467      140.92017    
     28000  -11357.436      62.51997      -11294.916      185.89225      187.95556      140.98201    
     28100  -11353.474      61.430591     -11292.043      185.84678      187.91519      141.04384    
     28200  -11351.19       63.038135     -11288.152      185.80376      187.87614      141.10568    
     28300  -11347.801      64.163159     -11283.638      185.75868      187.83384      141.16751    
     28400  -11342.756      64.599697     -11278.156      185.71649      187.79343      141.22934    
     28500  -11337.332      64.127711     -11273.205      185.67338      187.75129      141.29118    
     28600  -11334.683      64.331609     -11270.351      185.63126      187.70948      141.35301    
     28700  -11333.77       64.290135     -11269.48       185.58934      187.66819      141.41485    
     28800  -11326.339      60.355864     -11265.984      185.54573      187.62606      141.47668    
     28900  -11323.288      62.592444     -11260.696      185.50408      187.58602      141.53852    
     29000  -11318.974      63.982623     -11254.991      185.45957      187.54506      141.60035    
     29100  -11312.63       61.976471     -11250.654      185.41549      187.5062       141.66218    
     29200  -11311.213      64.191258     -11247.022      185.37071      187.46771      141.72402    
     29300  -11306.352      62.346299     -11244.006      185.32439      187.42871      141.78585    
     29400  -11302.145      60.198619     -11241.946      185.27873      187.39141      141.84769    
     29500  -11301.381      61.420274     -11239.961      185.23274      187.35342      141.90952    
     29600  -11297.044      62.622483     -11234.421      185.18672      187.31586      141.97135    
     29700  -11288.51       61.193024     -11227.317      185.14175      187.27802      142.03319    
     29800  -11287.428      65.143986     -11222.284      185.09667      187.2389       142.09502    
     29900  -11280.354      62.037941     -11218.317      185.05275      187.20021      142.15686    
     30000  -11277.359      62.063316     -11215.296      185.00944      187.16033      142.21869    
     30100  -11276.035      62.903599     -11213.132      184.9664       187.11844      142.28053    
     30200  -11272.072      62.634198     -11209.437      184.92525      187.0779       142.34236    
     30300  -11265.608      63.300242     -11202.308      184.88219      187.03498      142.40419    
     30400  -11259.882      63.124033     -11196.758      184.84157      186.99401      142.46603    
     30500  -11256.478      62.996261     -11193.482      184.79944      186.95128      142.52786    
     30600  -11254.527      63.257895     -11191.269      184.75739      186.90945      142.5897     
     30700  -11251.814      62.534941     -11189.279      184.71595      186.86909      142.65153    
     30800  -11247.4        60.209832     -11187.19       184.67113      186.82771      142.71337    
     30900  -11242.762      60.805072     -11181.957      184.62913      186.7895       142.7752     
     31000  -11237.45       62.966595     -11174.483      184.58365      186.74935      142.83703    
     31100  -11231.502      62.939878     -11168.562      184.53885      186.71155      142.89887    
     31200  -11227.805      64.550131     -11163.255      184.49292      186.67394      142.9607     
     31300  -11225.422      66.059006     -11159.363      184.44577      186.63545      143.02254    
     31400  -11220.034      61.799859     -11158.234      184.40103      186.59912      143.08437    
     31500  -11217.871      62.590448     -11155.28       184.35369      186.55944      143.14621    
     31600  -11213.42       63.647123     -11149.773      184.30916      186.52205      143.20804    
     31700  -11207.451      63.276671     -11144.174      184.2646       186.48302      143.26987    
     31800  -11204.059      64.470409     -11139.588      184.21954      186.44181      143.33171    
     31900  -11198.573      62.897936     -11135.676      184.17886      186.40262      143.39354    
     32000  -11194.657      63.144442     -11131.512      184.13404      186.3587       143.45538    
     32100  -11189.02       62.818006     -11126.202      184.0941       186.319        143.51721    
     32200  -11185.189      65.24012      -11119.949      184.05042      186.27508      143.57904    
     32300  -11182.469      66.150388     -11116.319      184.00928      186.23344      143.64088    
     32400  -11178.193      63.148697     -11115.044      183.96663      186.19169      143.70271    
     32500  -11174.135      62.437305     -11111.698      183.922        186.14911      143.76455    
     32600  -11168.538      61.814154     -11106.724      183.8797       186.1106       143.82638    
     32700  -11164.354      63.650079     -11100.704      183.83316      186.06813      143.88822    
     32800  -11159.264      64.992133     -11094.272      183.79017      186.03046      143.95005    
     32900  -11153.063      66.823441     -11086.239      183.7438       185.99011      144.01188    
     33000  -11148.848      65.38407      -11083.464      183.69821      185.95195      144.07372    
     33100  -11146.999      65.18025      -11081.819      183.6521       185.91352      144.13555    
     33200  -11142.874      63.182882     -11079.691      183.60498      185.87292      144.19739    
     33300  -11139.71       62.787542     -11076.922      183.56079      185.83453      144.25922    
     33400  -11135.037      62.499133     -11072.537      183.51348      185.79292      144.32106    
     33500  -11129.679      63.948024     -11065.731      183.4698       185.75373      144.38289    
     33600  -11125.371      65.689392     -11059.681      183.4255       185.71158      144.44472    
     33700  -11120.778      64.072755     -11056.705      183.3817       185.66878      144.50656    
     33800  -11117.475      63.878021     -11053.597      183.33923      185.62764      144.56839    
     33900  -11112.959      63.431226     -11049.528      183.29435      185.58381      144.63023    
     34000  -11107.979      62.520531     -11045.459      183.2531       185.54244      144.69206    
     34100  -11103.079      62.282334     -11040.797      183.20827      185.49763      144.75389    
     34200  -11098.378      63.842091     -11034.536      183.16504      185.45664      144.81573    
     34300  -11094.389      65.491748     -11028.897      183.12007      185.41467      144.87756    
     34400  -11090.555      64.289261     -11026.266      183.07451      185.37264      144.9394     
     34500  -11084.715      60.11022      -11024.605      183.02982      185.33215      145.00123    
     34600  -11083.04       62.634816     -11020.406      182.98183      185.2901       145.06307    
     34700  -11077.093      62.147151     -11014.946      182.93682      185.25157      145.1249     
     34800  -11073.73       64.980088     -11008.75       182.88853      185.21017      145.18673    
     34900  -11067.022      63.578703     -11003.444      182.84282      185.17078      145.24857    
     35000  -11064.415      63.524012     -11000.891      182.79579      185.13016      145.3104     
     35100  -11061.916      62.722835     -10999.194      182.74852      185.08879      145.37224    
     35200  -11055.622      61.269283     -10994.353      182.70276      185.04813      145.43407    
     35300  -11051.079      63.706873     -10987.372      182.65653      185.00532      145.49591    
     35400  -11047.536      65.668203     -10981.868      182.61139      184.9629       145.55774    
     35500  -11042.366      64.481731     -10977.884      182.56608      184.92003      145.61957    
     35600  -11037.194      61.098657     -10976.096      182.52079      184.87622      145.68141    
     35700  -11034.868      61.20761      -10973.66       182.47662      184.83292      145.74324    
     35800  -11030.176      62.210386     -10967.966      182.43205      184.78839      145.80508    
     35900  -11024.953      62.944965     -10962.008      182.38822      184.74473      145.86691    
     36000  -11018.263      61.599234     -10956.664      182.34309      184.70019      145.92874    
     36100  -11015.749      64.679534     -10951.069      182.29808      184.65719      145.99058    
     36200  -11009.752      64.252079     -10945.5        182.25172      184.61396      146.05241    
     36300  -11005.395      65.356784     -10940.038      182.20522      184.57133      146.11425    
     36400  -11002.018      65.420739     -10936.597      182.15811      184.52901      146.17608    
     36500  -10998.975      63.967985     -10935.007      182.11037      184.48703      146.23792    
     36600  -10993.009      61.456931     -10931.552      182.06212      184.4454       146.29975    
     36700  -10988.611      62.629673     -10925.982      182.01438      184.40417      146.36158    
     36800  -10982.69       64.194094     -10918.496      181.9659       184.36229      146.42342    
     36900  -10979.015      65.768502     -10913.246      181.91831      184.32133      146.48525    
     37000  -10972.523      62.725528     -10909.797      181.86952      184.27828      146.54709    
     37100  -10970.249      63.410044     -10906.838      181.82311      184.23721      146.60892    
     37200  -10964.32       60.857059     -10903.463      181.77459      184.19251      146.67076    
     37300  -10961.363      62.536638     -10898.827      181.72928      184.14952      146.73259    
     37400  -10955.56       65.261313     -10890.299      181.68188      184.10438      146.79442    
     37500  -10951.601      66.440702     -10885.16       181.63606      184.06012      146.85626    
     37600  -10947.498      64.231231     -10883.267      181.59016      184.0151       146.91809    
     37700  -10941.145      60.754443     -10880.391      181.54382      183.96901      146.97993    
     37800  -10938.929      62.622022     -10876.307      181.49956      183.92483      147.04176    
     37900  -10933.155      63.081439     -10870.074      181.45236      183.87835      147.10359    
     38000  -10927.669      65.211238     -10862.458      181.40754      183.83474      147.16543    
     38100  -10923          64.456048     -10858.544      181.35968      183.789        147.22726    
     38200  -10918.636      63.075334     -10855.56       181.31289      183.74521      147.2891     
     38300  -10915.021      63.014589     -10852.007      181.2641       183.70077      147.35093    
     38400  -10911.123      63.175978     -10847.947      181.2161       183.65792      147.41277    
     38500  -10906.651      62.38149      -10844.27       181.16607      183.61425      147.4746     
     38600  -10902.733      61.435994     -10841.297      181.11726      183.57212      147.53643    
     38700  -10898.012      61.635523     -10836.376      181.06727      183.5293       147.59827    
     38800  -10891.564      62.714145     -10828.85       181.01789      183.48684      147.6601     
     38900  -10886.267      63.070671     -10823.196      180.96889      183.44382      147.72194    
     39000  -10883.209      64.230938     -10818.978      180.91949      183.39978      147.78377    
     39100  -10878.374      62.003116     -10816.371      180.87136      183.35571      147.84561    
     39200  -10876.962      62.71294      -10814.249      180.82374      183.31018      147.90744    
     39300  -10870.801      62.245584     -10808.556      180.77634      183.26425      147.96927    
     39400  -10864.85       64.102516     -10800.748      180.72947      183.21821      148.03111    
     39500  -10857.542      61.565784     -10795.976      180.68267      183.17134      148.09294    
     39600  -10855.591      63.646798     -10791.944      180.63584      183.12479      148.15478    
     39700  -10853.047      64.601519     -10788.445      180.58887      183.07797      148.21661    
     39800  -10847.274      62.452905     -10784.821      180.54205      183.03271      148.27844    
     39900  -10843.595      63.537823     -10780.057      180.49352      182.98607      148.34028    
     40000  -10835.459      62.831568     -10772.628      180.44611      182.94169      148.40211    
     40100  -10830.949      64.310138     -10766.639      180.39691      182.89602      148.46395    
     40200  -10828.301      65.354255     -10762.947      180.348        182.85179      148.52578    
     40300  -10824.032      63.057184     -10760.975      180.29761      182.80716      148.58762    
     40400  -10819.157      61.917839     -10757.24       180.24683      182.76335      148.64945    
     40500  -10814.105      62.447587     -10751.658      180.19713      182.72016      148.71128    
     40600  -10808.541      62.877615     -10745.664      180.14621      182.6756       148.77312    
     40700  -10803.589      63.788241     -10739.801      180.09699      182.63187      148.83495    
     40800  -10798.811      63.728269     -10735.082      180.04657      182.58686      148.89679    
     40900  -10795.747      63.093013     -10732.654      179.99752      182.54248      148.95862    
     41000  -10791.233      61.535821     -10729.698      179.94826      182.49668      149.02046    
     41100  -10786.119      62.516035     -10723.603      179.90061      182.45092      149.08229    
     41200  -10779.98       63.745684     -10716.235      179.85208      182.40313      149.14412    
     41300  -10773.294      61.99948      -10711.295      179.80474      182.35641      149.20596    
     41400  -10770.449      62.901024     -10707.548      179.75703      182.3094       149.26779    
     41500  -10767.94       62.731338     -10705.209      179.70895      182.26191      149.32963    
     41600  -10763.037      61.371531     -10701.666      179.6615       182.21489      149.39146    
     41700  -10757.44       63.748188     -10693.692      179.61316      182.16728      149.45329    
     41800  -10749.636      62.829776     -10686.807      179.5652       182.12172      149.51513    
     41900  -10748.566      65.487313     -10683.079      179.51582      182.07559      149.57696    
     42000  -10743.99       63.338037     -10680.652      179.46678      182.03057      149.6388     
     42100  -10739.842      62.867296     -10676.975      179.41635      181.98492      149.70063    
     42200  -10733.602      62.283599     -10671.319      179.36657      181.94044      149.76247    
     42300  -10726.485      63.66842      -10662.817      179.31527      181.89579      149.8243     
     42400  -10723.281      64.734307     -10658.547      179.26443      181.85164      149.88613    
     42500  -10720.147      64.292917     -10655.854      179.21401      181.80751      149.94797    
     42600  -10715.239      62.841594     -10652.397      179.16284      181.76154      150.0098     
     42700  -10709.993      62.346197     -10647.647      179.11429      181.71803      150.07164    
     42800  -10704.68       64.068329     -10640.612      179.06287      181.67125      150.13347    
     42900  -10698.768      65.507996     -10633.26       179.01535      181.62762      150.19531    
     43000  -10694.289      64.216048     -10630.073      178.96441      181.5789       150.25714    
     43100  -10689.079      61.645268     -10627.434      178.91855      181.53369      150.31897    
     43200  -10685.482      62.318851     -10623.163      178.86936      181.48465      150.38081    
     43300  -10683.222      64.938366     -10618.284      178.8219       181.43783      150.44264    
     43400  -10676.134      62.961731     -10613.172      178.77434      181.39008      150.50448    
     43500  -10671.063      63.655078     -10607.408      178.72658      181.34168      150.56631    
     43600  -10665.474      63.333175     -10602.141      178.68005      181.29476      150.62814    
     43700  -10662.45       63.348219     -10599.102      178.631        181.24634      150.68998    
     43800  -10658.885      62.366985     -10596.518      178.58377      181.20151      150.75181    
     43900  -10653.762      62.51461      -10591.247      178.53229      181.15404      150.81365    
     44000  -10648.309      64.25398      -10584.055      178.48444      181.11138      150.87548    
     44100  -10643.3        64.545484     -10578.755      178.43184      181.06478      150.93732    
     44200  -10638.727      63.897996     -10574.829      178.38304      181.02228      150.99915    
     44300  -10633.364      62.088316     -10571.276      178.33027      180.97697      151.06098    
     44400  -10630.26       63.045343     -10567.214      178.27972      180.93361      151.12282    
     44500  -10624.784      63.881282     -10560.902      178.22897      180.88948      151.18465    
     44600  -10618.789      65.059347     -10553.73       178.17858      180.84419      151.24649    
     44700  -10615.354      66.278891     -10549.075      178.1302       180.79959      151.30832    
     44800  -10609.794      62.524272     -10547.27       178.08041      180.75298      151.37016    
     44900  -10605.423      62.285625     -10543.138      178.03309      180.70785      151.43199    
     45000  -10598.899      61.251358     -10537.648      177.98446      180.65975      151.49382    
     45100  -10594.061      62.569927     -10531.491      177.93911      180.61367      151.55566    
     45200  -10590.468      65.06676      -10525.402      177.89081      180.56395      151.61749    
     45300  -10583.472      65.722362     -10517.75       177.84567      180.51785      151.67933    
     45400  -10580.136      66.480285     -10513.656      177.79701      180.46907      151.74116    
     45500  -10577.245      65.01665      -10512.229      177.75139      180.42341      151.80299    
     45600  -10571.528      62.805192     -10508.723      177.7034       180.37511      151.86483    
     45700  -10566.324      61.611845     -10504.712      177.65663      180.32949      151.92666    
     45800  -10562.174      62.698665     -10499.476      177.60903      180.28371      151.9885     
     45900  -10556.787      64.466611     -10492.32       177.55931      180.23886      152.05033    
     46000  -10553.225      67.547092     -10485.678      177.51073      180.19579      152.11217    
     46100  -10546.148      63.901795     -10482.246      177.45984      180.15084      152.174      
     46200  -10543.334      62.729978     -10480.604      177.41189      180.10907      152.23583    
     46300  -10537.28       61.731005     -10475.548      177.36007      180.0637       152.29767    
     46400  -10532.887      63.308966     -10469.578      177.31254      180.0228       152.3595     
     46500  -10527.171      63.798488     -10463.373      177.26116      179.97724      152.42134    
     46600  -10521.6        64.059552     -10457.541      177.21468      179.93565      152.48317    
     46700  -10518.294      64.172497     -10454.122      177.16452      179.88903      152.54501    
     46800  -10514.781      62.897705     -10451.883      177.11919      179.84613      152.60684    
     46900  -10510.642      63.304941     -10447.337      177.07144      179.80012      152.66867    
     47000  -10504.659      64.359402     -10440.3        177.02534      179.75522      152.73051    
     47100  -10498.162      64.73079      -10433.431      176.97954      179.70952      152.79234    
     47200  -10494.453      65.472432     -10428.981      176.93386      179.66245      152.85418    
     47300  -10488.725      63.430548     -10425.294      176.89043      179.61709      152.91601    
     47400  -10483.859      62.299421     -10421.56       176.84356      179.56877      152.97785    
     47500  -10479.938      62.432132     -10417.506      176.80064      179.52506      153.03968    
     47600  -10475.043      62.453993     -10412.589      176.7534       179.47825      153.10151    
     47700  -10470.666      64.256506     -10406.41       176.70955      179.43538      153.16335    
     47800  -10463.409      63.483504     -10399.926      176.66179      179.39002      153.22518    
     47900  -10457.74       63.147749     -10394.593      176.61662      179.34843      153.28702    
     48000  -10454.356      62.340607     -10392.016      176.56814      179.30452      153.34885    
     48100  -10451.648      62.663722     -10388.984      176.52175      179.26406      153.41068    
     48200  -10447.529      64.132917     -10383.396      176.47215      179.22118      153.47252    
     48300  -10438.781      61.746427     -10377.034      176.42577      179.18192      153.53435    
     48400  -10434.822      63.719977     -10371.102      176.37647      179.13976      153.59619    
     48500  -10430.757      64.357632     -10366.399      176.33019      179.09971      153.65802    
     48600  -10424.724      62.560645     -10362.163      176.28326      179.05806      153.71986    
     48700  -10420.418      62.768193     -10357.65       176.23741      179.01562      153.78169    
     48800  -10413.369      60.613934     -10352.755      176.19293      178.9737       153.84352    
     48900  -10412.039      64.572465     -10347.466      176.14783      178.92961      153.90536    
     49000  -10406.648      63.989874     -10342.658      176.10548      178.88756      153.96719    
     49100  -10402.418      63.641133     -10338.777      176.06079      178.84227      154.02903    
     49200  -10396.93       61.919531     -10335.011      176.01981      178.79965      154.09086    
     49300  -10392.742      62.950739     -10329.791      175.97663      178.75393      154.1527     
     49400  -10386.969      65.047431     -10321.921      175.9357       178.7103       154.21453    
     49500  -10380.248      64.129723     -10316.118      175.89346      178.66607      154.27636    
     49600  -10375.398      62.359982     -10313.038      175.85102      178.62281      154.3382     
     49700  -10373.751      64.185164     -10309.565      175.80887      178.58162      154.40003    
     49800  -10367.645      63.128294     -10304.516      175.76456      178.53955      154.46187    
     49900  -10363.868      64.952302     -10298.916      175.72179      178.50057      154.5237     
     50000  -10356.377      63.212183     -10293.165      175.67571      178.45965      154.58553    
     50100  -10351.063      64.53052      -10286.533      175.63172      178.4222       154.64737    
     50200  -10345.674      64.558851     -10281.115      175.58518      178.38287      154.7092     
     50300  -10343.295      64.062507     -10279.233      175.54074      178.34667      154.77104    
     50400  -10338.335      62.634579     -10275.7        175.49423      178.30811      154.83287    
     50500  -10333.534      63.394765     -10270.139      175.45026      178.27112      154.89471    
     50600  -10328.164      64.749382     -10263.415      175.40678      178.23258      154.95654    
     50700  -10321.6        65.614636     -10255.985      175.36388      178.19337      155.01837    
     50800  -10316.124      64.514282     -10251.609      175.32254      178.15475      155.08021    
     50900  -10313.277      63.059855     -10250.217      175.28057      178.11363      155.14204    
     51000  -10307.529      61.831429     -10245.698      175.2423       178.07456      155.20388    
     51100  -10303.28       63.695446     -10239.584      175.20206      178.03124      155.26571    
     51200  -10295.805      62.744033     -10233.061      175.16507      177.98996      155.32755    
     51300  -10290.798      63.832095     -10226.966      175.12744      177.9478       155.38938    
     51400  -10287.797      64.031375     -10223.766      175.08949      177.90527      155.45121    
     51500  -10284.829      63.541492     -10221.287      175.05329      177.86499      155.51305    
     51600  -10278.743      62.176386     -10216.566      175.01435      177.82281      155.57488    
     51700  -10273.478      63.570456     -10209.908      174.97718      177.78469      155.63672    
     51800  -10267.118      65.012976     -10202.105      174.93679      177.7457       155.69855    
     51900  -10260.893      63.957744     -10196.935      174.89683      177.70965      155.76038    
     52000  -10258.032      63.893469     -10194.139      174.85466      177.6735       155.82222    
     52100  -10252.969      63.164513     -10189.805      174.81342      177.63981      155.88405    
     52200  -10248.624      63.211656     -10185.412      174.77013      177.60529      155.94589    
     52300  -10243.953      62.784392     -10181.168      174.72793      177.57274      156.00772    
     52400  -10239.088      62.952758     -10176.136      174.68516      177.53974      156.06956    
     52500  -10231.731      62.213409     -10169.518      174.64343      177.50721      156.13139    
     52600  -10228.32       65.834947     -10162.485      174.60262      177.47399      156.19322    
     52700  -10221.283      64.123319     -10157.159      174.56205      177.43867      156.25506    
     52800  -10218.301      62.677601     -10155.624      174.52527      177.40548      156.31689    
     52900  -10213.122      61.772579     -10151.35       174.4859       177.36745      156.37873    
     53000  -10210.171      64.56217      -10145.609      174.45145      177.33264      156.44056    
     53100  -10203.547      64.615244     -10138.932      174.4147       177.29354      156.5024     
     53200  -10196.399      64.838464     -10131.561      174.38156      177.25654      156.56423    
     53300  -10192.236      65.353568     -10126.883      174.34718      177.21704      156.62606    
     53400  -10189.466      64.026292     -10125.44       174.31569      177.18011      156.6879     
     53500  -10183.991      62.698648     -10121.293      174.28182      177.14165      156.74973    
     53600  -10177.965      61.993154     -10115.972      174.2493       177.10496      156.81157    
     53700  -10173.491      64.147679     -10109.344      174.21535      177.06766      156.8734     
     53800  -10167.88       65.652472     -10102.228      174.18229      177.03253      156.93523    
     53900  -10162.094      64.960453     -10097.133      174.14761      176.99743      156.99707    
     54000  -10158.929      63.282142     -10095.647      174.11183      176.96456      157.0589     
     54100  -10153.253      62.19811      -10091.055      174.07564      176.93317      157.12074    
     54200  -10148.484      63.283458     -10085.2        174.03759      176.90184      157.18257    
     54300  -10142.426      63.349297     -10079.076      174.00186      176.8734       157.24441    
     54400  -10137.384      63.974617     -10073.409      173.96271      176.84204      157.30624    
     54500  -10133.847      64.490092     -10069.357      173.92651      176.81432      157.36807    
     54600  -10127.76       61.406032     -10066.354      173.8884       176.78527      157.42991    
     54700  -10125.393      63.723039     -10061.67       173.8522       176.75664      157.49174    
     54800  -10118.051      63.348222     -10054.703      173.81651      176.72692      157.55358    
     54900  -10111.631      65.233793     -10046.397      173.78127      176.69558      157.61541    
     55000  -10106.008      64.042486     -10041.965      173.74936      176.66578      157.67725    
     55100  -10103.833      65.212547     -10038.62       173.71568      176.63207      157.73908    
     55200  -10097.606      62.714518     -10034.892      173.68634      176.60074      157.80091    
     55300  -10092.58       62.43057      -10030.149      173.65564      176.56559      157.86275    
     55400  -10088.146      63.012661     -10025.133      173.6283       176.53244      157.92458    
     55500  -10082.548      63.457023     -10019.091      173.59974      176.49723      157.98642    
     55600  -10076.232      63.804877     -10012.427      173.5721       176.46342      158.04825    
     55700  -10072.231      64.536844     -10007.695      173.54412      176.42994      158.11008    
     55800  -10067.214      62.075653     -10005.138      173.51523      176.39675      158.17192    
     55900  -10063.838      63.287609     -10000.55       173.48709      176.36641      158.23375    
     56000  -10057.349      62.943842     -9994.4055      173.45514      176.33456      158.29559    
     56100  -10051.44       65.228331     -9986.2116      173.42559      176.30718      158.35742    
     56200  -10044.555      65.515158     -9979.0401      173.39185      176.27763      158.41926    
     56300  -10040.934      64.648923     -9976.2848      173.36129      176.25248      158.48109    
     56400  -10037.963      65.458445     -9972.5045      173.32688      176.22502      158.54292    
     56500  -10032.115      63.438825     -9968.6764      173.29549      176.2024       158.60476    
     56600  -10027.891      63.165812     -9964.7254      173.26025      176.17546      158.66659    
     56700  -10021.504      62.147589     -9959.3561      173.22855      176.15217      158.72843    
     56800  -10017.253      65.084926     -9952.1679      173.19585      176.12719      158.79026    
     56900  -10011.146      66.542487     -9944.6038      173.16324      176.10065      158.8521     
     57000  -10003.864      63.079404     -9940.7849      173.13443      176.07652      158.91393    
     57100  -10002.033      63.536141     -9938.4968      173.10325      176.04726      158.97576    
     57200  -9996.9028      63.553486     -9933.3494      173.07844      176.02272      159.0376     
     57300  -9989.994       61.908395     -9928.0856      173.0486       175.99096      159.09943    
     57400  -9985.1761      62.905875     -9922.2702      173.0254       175.96462      159.16127    
     57500  -9979.3913      63.272587     -9916.1187      172.99757      175.93265      159.2231     
     57600  -9976.1602      65.102162     -9911.058       172.97555      175.90543      159.28493    
     57700  -9970.505       62.793846     -9907.7111      172.95019      175.87333      159.34677    
     57800  -9966.2145      62.345171     -9903.8694      172.92739      175.84432      159.4086     
     57900  -9959.7766      61.725029     -9898.0516      172.90351      175.81473      159.47044    
     58000  -9954.1631      64.858875     -9889.3043      172.87821      175.78474      159.53227    
     58100  -9950.5164      68.672394     -9881.844       172.85514      175.75787      159.59411    
     58200  -9943.6168      65.294712     -9878.3221      172.82819      175.7296       159.65594    
     58300  -9938.038       63.24077      -9874.7973      172.8044       175.70608      159.71777    
     58400  -9935.1505      63.910423     -9871.24        172.77468      175.67988      159.77961    
     58500  -9930.659       64.30914      -9866.3498      172.74856      175.65861      159.84144    
     58600  -9925.0759      63.985793     -9861.0901      172.71938      175.63602      159.90328    
     58700  -9917.2339      59.872242     -9857.3617      172.68982      175.61438      159.96511    
     58800  -9913.8332      61.146886     -9852.6863      172.66119      175.59502      160.02695    
     58900  -9908.0125      62.479227     -9845.5333      172.63014      175.5725       160.08878    
     59000  -9901.5813      64.316811     -9837.2645      172.60318      175.55365      160.15061    
     59100  -9897.0882      65.031611     -9832.0566      172.57255      175.53031      160.21245    
     59200  -9892.1011      64.439141     -9827.662       172.5478       175.51149      160.27428    
     59300  -9887.0803      64.252928     -9822.8273      172.51915      175.48644      160.33612    
     59400  -9882.5412      63.985787     -9818.5554      172.49615      175.46556      160.39795    
     59500  -9876.3833      61.957744     -9814.4255      172.4705       175.43987      160.45978    
     59600  -9872.9929      63.955461     -9809.0374      172.44801      175.41591      160.52162    
     59700  -9868.2155      65.769846     -9802.4456      172.4257       175.39025      160.58345    
     59800  -9861.2358      65.793109     -9795.4427      172.40434      175.36359      160.64529    
     59900  -9855.655       65.233982     -9790.421       172.38365      175.33718      160.70712    
     60000  -9850.5983      63.150545     -9787.4477      172.36313      175.31042      160.76896    
     60100  -9847.1306      64.526694     -9782.6039      172.34446      175.28495      160.83079    
     60200  -9840.0642      63.483982     -9776.5802      172.32289      175.25691      160.89262    
     60300  -9833.3057      63.257154     -9770.0486      172.30403      175.23296      160.95446    
     60400  -9827.7696      65.461045     -9762.3085      172.28065      175.20582      161.01629    
     60500  -9822.3604      65.60924      -9756.7512      172.26089      175.18419      161.07813    
     60600  -9816.0686      62.025527     -9754.0431      172.23663      175.16072      161.13996    
     60700  -9812.2729      63.040098     -9749.2328      172.21327      175.13952      161.2018     
     60800  -9806.5535      62.187713     -9744.3658      172.189        175.11975      161.26363    
     60900  -9802.3997      62.560661     -9739.8391      172.16294      175.09977      161.32546    
     61000  -9799.4383      63.501276     -9735.937       172.13827      175.0818       161.3873     
     61100  -9793.1876      61.243826     -9731.9437      172.11179      175.063        161.44913    
     61200  -9787.9508      63.168843     -9724.782       172.08614      175.04545      161.51097    
     61300  -9779.6121      63.902139     -9715.7099      172.06006      175.02695      161.5728     
     61400  -9771.901       62.399055     -9709.502       172.03446      175.00823      161.63463    
     61500  -9769.1825      63.959874     -9705.2226      172.01025      174.98984      161.69647    
     61600  -9763.7901      62.456093     -9701.334       171.98692      174.96979      161.7583     
     61700  -9758.4821      62.50914      -9695.9729      171.96383      174.9481       161.82014    
     61800  -9754.3086      64.734138     -9689.5745      171.9431       174.92723      161.88197    
     61900  -9747.4558      64.310496     -9683.1453      171.92212      174.90404      161.94381    
     62000  -9741.7068      64.03433      -9677.6725      171.90401      174.88183      162.00564    
     62100  -9737.5978      63.169975     -9674.4278      171.88417      174.85693      162.06747    
     62200  -9731.639       62.554464     -9669.0846      171.86644      174.83329      162.12931    
     62300  -9725.8348      63.657991     -9662.1768      171.84862      174.80925      162.19114    
     62400  -9717.9994      64.016814     -9653.9826      171.82961      174.78449      162.25298    
     62500  -9711.3763      64.201121     -9647.1751      171.81193      174.76108      162.31481    
     62600  -9708.2019      63.973067     -9644.2288      171.79225      174.73716      162.37665    
     62700  -9703.3822      63.244611     -9640.1376      171.77341      174.71626      162.43848    
     62800  -9697.5992      63.163814     -9634.4354      171.75261      174.69487      162.50031    
     62900  -9691.5371      63.446828     -9628.0903      171.73101      174.6738       162.56215    
     63000  -9686.0615      64.309405     -9621.7521      171.70916      174.6554       162.62398    
     63100  -9678.7565      63.361374     -9615.3952      171.68511      174.63642      162.68582    
     63200  -9674.7046      64.517499     -9610.1871      171.66238      174.61929      162.74765    
     63300  -9667.5587      61.345149     -9606.2136      171.63853      174.60166      162.80949    
     63400  -9662.9357      62.282391     -9600.6533      171.61442      174.5847       162.87132    
     63500  -9657.7526      63.835071     -9593.9175      171.59082      174.5674       162.93315    
     63600  -9649.0546      64.235275     -9584.8194      171.56754      174.54961      162.99499    
     63700  -9643.2054      65.893797     -9577.3116      171.54451      174.53194      163.05682    
     63800  -9637.5427      63.430827     -9574.1118      171.52169      174.51307      163.11866    
     63900  -9633.1739      63.698594     -9569.4754      171.50099      174.49493      163.18049    
     64000  -9628.6247      64.227923     -9564.3968      171.47972      174.47411      163.24232    
     64100  -9623.8059      64.314298     -9559.4916      171.45961      174.45362      163.30416    
     64200  -9615.9058      61.77169      -9554.1341      171.44075      174.43286      163.36599    
     64300  -9612.2549      63.840383     -9548.4145      171.42137      174.40927      163.42783    
     64400  -9603.0803      60.90557      -9542.1747      171.40442      174.38774      163.48966    
     64500  -9599.1507      63.987012     -9535.1637      171.38646      174.36509      163.5515     
     64600  -9590.284       63.003678     -9527.2803      171.36834      174.34152      163.61333    
     64700  -9584.8031      64.564174     -9520.2389      171.35186      174.31963      163.67516    
     64800  -9580.0803      63.957754     -9516.1225      171.33249      174.29641      163.737      
     64900  -9574.9863      63.814261     -9511.1721      171.31488      174.2752       163.79883    
     65000  -9566.2011      61.274351     -9504.9267      171.2954       174.25378      163.86067    
     65100  -9562.096       63.775034     -9498.321       171.27477      174.23289      163.9225     
     65200  -9555.6492      62.462703     -9493.1865      171.25551      174.21394      163.98434    
     65300  -9550.8477      61.985669     -9488.862       171.23319      174.19373      164.04617    
     65400  -9544.2621      62.118412     -9482.1437      171.21208      174.17642      164.108      
     65500  -9537.0175      64.787864     -9472.2296      171.18972      174.15779      164.16984    
     65600  -9527.7543      64.25571      -9463.4986      171.16672      174.13991      164.23167    
     65700  -9521.6246      63.812242     -9457.8124      171.1445       174.12344      164.29351    
     65800  -9517.9687      65.039678     -9452.929       171.1207       174.10424      164.35534    
     65900  -9511.7392      63.790075     -9447.9491      171.09913      174.08752      164.41717    
     66000  -9505.0461      62.872412     -9442.1736      171.07652      174.06978      164.47901    
     66100  -9499.6978      63.39249      -9436.3053      171.05406      174.05066      164.54084    
     66200  -9492.0784      62.582261     -9429.4961      171.03298      174.03197      164.60268    
     66300  -9486.931       63.055353     -9423.8757      171.01211      174.01218      164.66451    
     66400  -9481.2938      61.09792      -9420.1958      170.99186      173.9918       164.72635    
     66500  -9475.304       63.176578     -9412.1274      170.97248      173.97098      164.78818    
     66600  -9465.5236      62.802198     -9402.7214      170.95333      173.94923      164.85001    
     66700  -9460.0245      65.435036     -9394.5895      170.93419      173.92706      164.91185    
     66800  -9453.6998      64.392571     -9389.3072      170.91584      173.90472      164.97368    
     66900  -9446.2701      61.154597     -9385.1155      170.89798      173.88283      165.03552    
     67000  -9441.3838      63.384048     -9377.9997      170.87868      173.85963      165.09735    
     67100  -9434.566       64.171598     -9370.3944      170.86028      173.83717      165.15919    
     67200  -9428.1863      64.597799     -9363.5885      170.8415       173.81551      165.22102    
     67300  -9422.807       63.939629     -9358.8674      170.82129      173.79358      165.28285    
     67400  -9416.2397      63.807049     -9352.4327      170.80127      173.77293      165.34469    
     67500  -9408.634       64.107635     -9344.5263      170.77986      173.75202      165.40652    
     67600  -9399.8123      63.957429     -9335.8549      170.75831      173.73208      165.46836    
     67700  -9392.0922      63.997403     -9328.0948      170.73685      173.7127       165.53019    
     67800  -9387.4618      64.529997     -9322.9318      170.71312      173.69293      165.59202    
     67900  -9380.746       63.323192     -9317.4229      170.69113      173.67523      165.65386    
     68000  -9373.684       63.110436     -9310.5736      170.66736      173.65593      165.71569    
     68100  -9367.286       63.418462     -9303.8675      170.64392      173.63744      165.77753    
     68200  -9361.2327      63.415062     -9297.8176      170.6212       173.61933      165.83936    
     68300  -9355.0717      62.091371     -9292.9803      170.59678      173.59866      165.9012     
     68400  -9347.8389      62.523334     -9285.3156      170.57553      173.58051      165.96303    
     68500  -9338.1607      62.572759     -9275.588       170.55207      173.55912      166.02486    
     68600  -9331.9578      65.068097     -9266.8897      170.53008      173.53823      166.0867     
     68700  -9324.2445      64.125455     -9260.119       170.50949      173.51756      166.14853    
     68800  -9317.0024      62.883093     -9254.1194      170.4875       173.49436      166.21037    
     68900  -9312.4913      65.167549     -9247.3237      170.46777      173.47294      166.2722     
     69000  -9304.1161      64.88622      -9239.2298      170.44654      173.44927      166.33404    
     69100  -9296.0753      64.888569     -9231.1867      170.42672      173.42605      166.39587    
     69200  -9288.0632      63.935116     -9224.1281      170.40704      173.40283      166.4577     
     69300  -9280.6744      63.528988     -9217.1454      170.38619      173.3785       166.51954    
     69400  -9273.7813      64.455406     -9209.3259      170.36665      173.35502      166.58137    
     69500  -9267.9215      65.292969     -9202.6285      170.34562      173.33056      166.64321    
     69600  -9258.2715      63.111616     -9195.1599      170.32504      173.30799      166.70504    
     69700  -9250.4276      63.012076     -9187.4155      170.30316      173.28413      166.76687    
     69800  -9244.4861      64.147478     -9180.3387      170.28133      173.26101      166.82871    
     69900  -9236.9908      64.692961     -9172.2979      170.25906      173.23909      166.89054    
     70000  -9227.3392      63.204946     -9164.1342      170.23483      173.21631      166.95238    
     70100  -9219.5342      62.744688     -9156.7895      170.21197      173.1954       167.01421    
     70200  -9213.9198      63.773725     -9150.1461      170.18639      173.17333      167.07605    
     70300  -9208.2561      66.156712     -9142.0994      170.16193      173.15313      167.13788    
     70400  -9199.4071      64.884038     -9134.5231      170.13654      173.13194      167.19971    
     70500  -9190.7189      64.43464      -9126.2843      170.11076      173.11087      167.26155    
     70600  -9183.223       65.044729     -9118.1783      170.08517      173.09076      167.32338    
     70700  -9174.5699      64.146947     -9110.423       170.05903      173.06915      167.38522    
     70800  -9168.478       65.831626     -9102.6464      170.03362      173.04741      167.44705    
     70900  -9161.8951      66.558129     -9095.337       170.00765      173.02509      167.50889    
     71000  -9150.9135      63.953446     -9086.9601      169.98309      173.00295      167.57072    
     71100  -9144.7051      64.437417     -9080.2677      169.95785      172.97856      167.63255    
     71200  -9137.2542      63.844814     -9073.4094      169.9341       172.9553       167.69439    
     71300  -9130.2807      64.993822     -9065.2869      169.90943      172.92996      167.75622    
     71400  -9120.7272      63.346458     -9057.3808      169.8859       172.90477      167.81806    
     71500  -9115.0319      66.819444     -9048.2125      169.86237      172.87916      167.87989    
     71600  -9105.3701      65.153111     -9040.217       169.83815      172.85229      167.94172    
     71700  -9096.1366      65.172513     -9030.9641      169.81526      172.82619      168.00356    
     71800  -9090.137       67.088672     -9023.0483      169.79092      172.79875      168.06539    
     71900  -9078.5987      64.31974      -9014.279       169.76754      172.7724       168.12723    
     72000  -9072.5545      65.738978     -9006.8155      169.74315      172.74547      168.18906    
     72100  -9064.8597      64.985443     -8999.8743      169.71768      172.71808      168.2509     
     72200  -9057.4062      66.340623     -8991.0656      169.69352      172.69233      168.31273    
     72300  -9047.0995      65.080955     -8982.0186      169.66628      172.66434      168.37456    
     72400  -9040.4738      66.323605     -8974.1502      169.64127      172.63908      168.4364     
     72500  -9032.597       66.059193     -8966.5378      169.61359      172.61191      168.49823    
     72600  -9023.6071      64.821258     -8958.7859      169.58642      172.58559      168.56007    
     72700  -9015.3935      65.01345      -8950.38        169.55877      172.55983      168.6219     
     72800  -9008.2187      66.984355     -8941.2343      169.5296       172.5326       168.68374    
[...]
     81600  -11734.72       65.085768     -11669.634      167.09155      171.1905       174.12515    
     81700  -11735.01       56.086542     -11678.924      167.06806      171.17995      174.18698    
     81800  -11739.466      60.189511     -11679.276      167.04931      171.17013      174.24881    
     81900  -11737.294      63.625627     -11673.668      167.02168      171.15733      174.31065    
     82000  -11736.136      67.280907     -11668.855      166.99042      171.15188      174.37248    
     82100  -11731.136      62.113619     -11669.022      166.95279      171.15402      174.43432    
     82200  -11734.197      63.87989      -11670.317      166.90469      171.16048      174.49615    
     82300  -11736.166      63.322763     -11672.843      166.85339      171.17782      174.55799    
     82400  -11738.162      62.649593     -11675.513      166.79931      171.20039      174.61982    
     82500  -11737.488      61.228794     -11676.259      166.73838      171.21333      174.68165    
     82600  -11737.097      63.187442     -11673.91       166.68032      171.22801      174.74349    
     82700  -11738.656      65.280845     -11673.375      166.62807      171.23847      174.80532    
     82800  -11735.373      60.983931     -11674.389      166.57358      171.23281      174.86716    
     82900  -11735.819      63.596507     -11672.223      166.52219      171.21974      174.92899    
     83000  -11731.328      62.2923       -11669.036      166.4712       171.20355      174.99083    
     83100  -11729.826      64.665165     -11665.161      166.42038      171.19457      175.05266    
     83200  -11732.707      67.814201     -11664.893      166.36913      171.18788      175.11449    
     83300  -11733.104      62.087695     -11671.016      166.31781      171.18189      175.17633    
     83400  -11739.388      62.45006      -11676.938      166.26481      171.17655      175.23816    
     83500  -11738.703      59.514921     -11679.188      166.21123      171.17085      175.3        
     83600  -11736.977      61.492306     -11675.485      166.15189      171.15617      175.36183    
     83700  -11737.606      66.904876     -11670.701      166.09391      171.14668      175.42366    
     83800  -11740.289      67.630793     -11672.658      166.0336       171.13668      175.4855     
     83900  -11740.088      60.113505     -11679.974      165.96563      171.12288      175.54733    
     84000  -11740.334      58.513877     -11681.82       165.90218      171.12165      175.60917    
     84100  -11736.381      61.416472     -11674.965      165.83408      171.11688      175.671      
     84200  -11733.566      68.372198     -11665.194      165.76584      171.11053      175.73284    
     84300  -11734.267      70.149295     -11664.118      165.69942      171.10483      175.79467    
     84400  -11740.65       66.418913     -11674.231      165.6337       171.09645      175.8565     
     84500  -11744.401      58.751654     -11685.649      165.57681      171.08864      175.91834    
     84600  -11745.114      55.717415     -11689.397      165.52089      171.07341      175.98017    
     84700  -11742.932      60.857933     -11682.074      165.46837      171.05557      176.04201    
     84800  -11738.566      68.589894     -11669.976      165.4221       171.03826      176.10384    
     84900  -11732.705      68.296078     -11664.409      165.37475      171.01787      176.16568    
     85000  -11734.947      65.644805     -11669.302      165.3237       170.99731      176.22751    
     85100  -11743.116      63.684437     -11679.431      165.27173      170.98294      176.28934    
     85200  -11746.925      59.313376     -11687.611      165.21175      170.97013      176.35118    
     85300  -11748.527      59.950557     -11688.576      165.14342      170.96389      176.41301    
     85400  -11746.496      62.806542     -11683.689      165.07134      170.96415      176.47485    
     85500  -11742.858      64.850936     -11678.007      164.99435      170.96722      176.53668    
     85600  -11739.293      64.820613     -11674.472      164.91467      170.97396      176.59851    
     85700  -11739.436      64.640588     -11674.795      164.82942      170.9817       176.66035    
     85800  -11740.445      61.831175     -11678.614      164.74325      170.99349      176.72218    
     85900  -11743.527      61.488172     -11682.039      164.66043      171.00643      176.78402    
     86000  -11744.959      61.940616     -11683.018      164.57591      171.01461      176.84585    
     86100  -11743.741      61.221723     -11682.519      164.49517      171.02443      176.90769    
     86200  -11744.315      62.92589      -11681.389      164.41627      171.02546      176.96952    
     86300  -11742.085      62.492279     -11679.593      164.33912      171.02175      177.03135    
     86400  -11742.191      64.323662     -11677.868      164.26438      171.0115       177.09319    
     86500  -11743.076      65.117182     -11677.959      164.18875      170.99932      177.15502    
     86600  -11745.35       64.489206     -11680.861      164.10943      170.98865      177.21686    
     86700  -11749.452      64.359007     -11685.093      164.02975      170.98212      177.27869    
     86800  -11749.324      61.219887     -11688.104      163.94519      170.97922      177.34053    
     86900  -11748.042      60.552066     -11687.49       163.85657      170.97845      177.40236    
     87000  -11744.653      61.956359     -11682.696      163.76364      170.98215      177.46419    
     87100  -11743.657      66.01602      -11677.641      163.66882      170.98629      177.52603    
     87200  -11740.527      64.480415     -11676.047      163.57673      170.99423      177.58786    
     87300  -11742.136      64.051157     -11678.085      163.48211      170.99861      177.6497     
     87400  -11745.79       63.672507     -11682.117      163.39118      171.00685      177.71153    
     87500  -11748.212      62.433        -11685.779      163.30117      171.01368      177.77336    
     87600  -11748.203      61.671069     -11686.532      163.20929      171.01992      177.8352     
     87700  -11746.014      62.450063     -11683.563      163.11796      171.02468      177.89703    
     87800  -11742.366      63.636631     -11678.729      163.02741      171.02493      177.95887    
     87900  -11740.749      64.750352     -11675.999      162.93638      171.02794      178.0207     
     88000  -11743.166      65.214928     -11677.951      162.8416       171.0316       178.08254    
     88100  -11745.097      63.011506     -11682.086      162.74095      171.03396      178.14437    
     88200  -11746.732      62.642965     -11684.089      162.64024      171.03973      178.2062     
     88300  -11746.016      62.869932     -11683.146      162.53657      171.04409      178.26804    
     88400  -11744.341      63.145185     -11681.196      162.437        171.05112      178.32987    
     88500  -11746.5        64.778256     -11681.722      162.33749      171.05465      178.39171    
     88600  -11745.715      61.65419      -11684.061      162.23381      171.05841      178.45354    
     88700  -11746.496      62.537596     -11683.959      162.13451      171.06522      178.51538    
     88800  -11742.985      61.522446     -11681.462      162.02778      171.07062      178.57721    
     88900  -11743.377      65.008967     -11678.368      161.91758      171.08084      178.63904    
     89000  -11741.793      64.489568     -11677.303      161.81032      171.09524      178.70088    
     89100  -11746.657      65.833974     -11680.823      161.69578      171.10566      178.76271    
     89200  -11747.85       60.71607      -11687.134      161.58158      171.11905      178.82455    
     89300  -11750.659      59.758756     -11690.9        161.46488      171.12897      178.88638    
     89400  -11749.738      61.190822     -11688.548      161.34499      171.1339       178.94821    
     89500  -11748.626      65.916119     -11682.71       161.22873      171.1423       179.01005    
     89600  -11743.796      65.56038      -11678.236      161.11141      171.14621      179.07188    
     89700  -11746.3        65.910931     -11680.389      160.99323      171.14646      179.13372    
     89800  -11749.743      62.174375     -11687.568      160.87602      171.1429       179.19555    
     89900  -11753.103      60.341261     -11692.761      160.7604       171.1367       179.25739    
     90000  -11753.335      61.684496     -11691.65       160.64085      171.12391      179.31922    
     90100  -11747.695      61.814457     -11685.88       160.52406      171.11331      179.38105    
     90200  -11748.564      67.60627      -11680.958      160.41011      171.10666      179.44289    
     90300  -11747.15       66.74038      -11680.41       160.29374      171.09787      179.50472    
     90400  -11746.949      62.433864     -11684.515      160.18091      171.09324      179.56656    
     90500  -11748.759      59.649019     -11689.11       160.06973      171.08633      179.62839    
     90600  -11750.861      61.023182     -11689.838      159.95681      171.08034      179.69023    
     90700  -11748.294      62.318326     -11685.975      159.84587      171.07408      179.75206    
     90800  -11747.193      66.078725     -11681.115      159.73432      171.06421      179.81389    
     90900  -11747.216      66.601603     -11680.614      159.62429      171.05207      179.87573    
     91000  -11748.794      63.753332     -11685.041      159.51737      171.03914      179.93756    
     91100  -11749.349      60.837347     -11688.511      159.41364      171.02554      179.9994     
     91200  -11749.936      61.231035     -11688.705      159.31044      171.00952      180.06123    
     91300  -11750.59       64.659283     -11685.93       159.20861      170.99597      180.12306    
     91400  -11745.683      63.422654     -11682.261      159.10885      170.98063      180.1849     
     91500  -11747.621      66.575427     -11681.046      159.01254      170.9676       180.24673    
     91600  -11747.139      62.644961     -11684.494      158.91719      170.95012      180.30857    
     91700  -11750.342      61.487444     -11688.854      158.82693      170.93415      180.3704     
     91800  -11750.13       59.823045     -11690.307      158.73404      170.91713      180.43224    
     91900  -11749.171      62.064922     -11687.106      158.64204      170.90321      180.49407    
     92000  -11748.222      66.379894     -11681.842      158.55018      170.89459      180.5559     
     92100  -11745.987      66.200471     -11679.787      158.45201      170.88421      180.61774    
     92200  -11746.224      64.107092     -11682.117      158.35648      170.87877      180.67957    
     92300  -11749.935      63.653069     -11686.282      158.26031      170.87167      180.74141    
     92400  -11750.857      61.483843     -11689.373      158.16569      170.863        180.80324    
     92500  -11748.532      60.102753     -11688.429      158.0721       170.85213      180.86508    
     92600  -11748.357      64.152767     -11684.204      157.98162      170.84181      180.92691    
     92700  -11744.233      63.549793     -11680.683      157.8944       170.83261      180.98874    
     92800  -11746.381      65.451778     -11680.929      157.80629      170.82052      181.05058    
     92900  -11747.616      63.427673     -11684.188      157.7213       170.81074      181.11241    
     93000  -11748.865      61.62315      -11687.242      157.63785      170.80181      181.17425    
     93100  -11749.237      61.576924     -11687.66       157.55485      170.79192      181.23608    
     93200  -11746.73       61.836203     -11684.894      157.47326      170.7854       181.29791    
     93300  -11744.354      63.271808     -11681.082      157.39343      170.77805      181.35975    
     93400  -11743.677      64.08476      -11679.592      157.31489      170.7712       181.42158    
     93500  -11745.296      63.481529     -11681.815      157.24302      170.76902      181.48342    
     93600  -11749.954      64.883856     -11685.07       157.16592      170.76271      181.54525    
     93700  -11747.966      60.967265     -11686.999      157.0911       170.76149      181.60709    
     93800  -11748.274      61.926409     -11686.348      157.01769      170.76477      181.66892    
     93900  -11747.443      63.378657     -11684.064      156.93978      170.76641      181.73075    
     94000  -11747.535      64.942225     -11682.593      156.8673       170.77098      181.79259    
     94100  -11745.695      62.182757     -11683.512      156.79749      170.77495      181.85442    
     94200  -11749.063      63.065379     -11685.998      156.7256       170.77428      181.91626    
     94300  -11749.105      61.912928     -11687.192      156.66137      170.77872      181.97809    
     94400  -11747.967      62.369173     -11685.597      156.5969       170.77936      182.03993    
     94500  -11749.101      66.094828     -11683.006      156.53186      170.77849      182.10176    
     94600  -11748.182      65.242322     -11682.94       156.47202      170.78032      182.16359    
     94700  -11749.591      64.120881     -11685.47       156.4099       170.77922      182.22543    
     94800  -11750.446      62.138084     -11688.307      156.3478       170.77674      182.28726    
     94900  -11749.972      61.521716     -11688.45       156.29164      170.77806      182.3491     
     95000  -11748.448      62.839557     -11685.609      156.2319       170.7767       182.41093    
     95100  -11747.261      64.560553     -11682.701      156.17241      170.77864      182.47277    
     95200  -11745.996      63.238532     -11682.758      156.11346      170.78226      182.5346     
     95300  -11750.684      64.661141     -11686.023      156.05108      170.78756      182.59643    
     95400  -11752.055      61.922635     -11690.132      155.98922      170.79163      182.65827    
     95500  -11751.515      60.580592     -11690.934      155.92953      170.79918      182.7201     
     95600  -11750.936      63.654529     -11687.282      155.87187      170.8031       182.78194    
     95700  -11746.491      63.800155     -11682.691      155.81823      170.80497      182.84377    
     95800  -11747.504      66.397847     -11681.106      155.76554      170.80459      182.9056     
     95900  -11747.208      63.313771     -11683.894      155.71414      170.80303      182.96744    
     96000  -11750.631      62.684936     -11687.946      155.6655       170.80238      183.02927    
     96100  -11748.921      59.790653     -11689.13       155.61662      170.79928      183.09111    
     96200  -11749.703      62.720026     -11686.983      155.56751      170.79806      183.15294    
     96300  -11746.826      63.495692     -11683.33       155.52024      170.79788      183.21478    
     96400  -11747.055      65.106853     -11681.948      155.46884      170.79532      183.27661    
     96500  -11746.596      62.83996      -11683.756      155.41945      170.79419      183.33844    
     96600  -11749.241      62.294717     -11686.947      155.36956      170.79206      183.40028    
     96700  -11749.773      61.729684     -11688.044      155.31847      170.78795      183.46211    
     96800  -11749.292      63.281711     -11686.01       155.27057      170.78409      183.52395    
     96900  -11746.906      63.747546     -11683.159      155.22191      170.77775      183.58578    
     97000  -11746.137      64.466887     -11681.671      155.1746       170.76903      183.64762    
     97100  -11745.326      61.091019     -11684.235      155.12627      170.75999      183.70945    
     97200  -11747.494      60.406156     -11687.088      155.07592      170.74818      183.77128    
     97300  -11748.873      61.517146     -11687.356      155.02689      170.73614      183.83312    
     97400  -11748.886      63.532757     -11685.353      154.97531      170.7227       183.89495    
     97500  -11746.338      63.87091      -11682.467      154.92534      170.70706      183.95679    
     97600  -11744.191      63.443785     -11680.747      154.87377      170.68971      184.01862    
     97700  -11746.908      64.425704     -11682.482      154.82518      170.67783      184.08045    
     97800  -11747.966      62.465361     -11685.501      154.77659      170.65903      184.14229    
     97900  -11749.234      61.513405     -11687.72       154.72752      170.64164      184.20412    
     98000  -11749.806      62.325732     -11687.48       154.68036      170.62367      184.26596    
     98100  -11748.685      63.750922     -11684.934      154.63293      170.60339      184.32779    
     98200  -11747.04       64.410208     -11682.63       154.58457      170.58393      184.38963    
     98300  -11745.544      63.19218      -11682.352      154.53643      170.56311      184.45146    
     98400  -11747.823      63.693363     -11684.129      154.48866      170.54387      184.51329    
     98500  -11750.661      64.102379     -11686.559      154.44117      170.52189      184.57513    
     98600  -11751.311      62.821536     -11688.49       154.39431      170.50395      184.63696    
     98700  -11750.641      62.205363     -11688.436      154.34257      170.48408      184.6988     
     98800  -11749.689      63.374365     -11686.314      154.29301      170.46617      184.76063    
     98900  -11746.897      63.163591     -11683.734      154.24439      170.44739      184.82247    
     99000  -11746.908      64.165292     -11682.743      154.19495      170.42843      184.8843     
     99100  -11749.201      64.765399     -11684.436      154.14667      170.4116       184.94613    
     99200  -11748.401      60.947324     -11687.454      154.09912      170.3968       185.00797    
     99300  -11750.656      62.337555     -11688.319      154.05167      170.38132      185.0698     
     99400  -11750.584      63.559212     -11687.025      154.0048       170.36499      185.13164    
     99500  -11747.67       63.731594     -11683.938      153.95974      170.35239      185.19347    
     99600  -11747.595      65.834292     -11681.761      153.91597      170.33734      185.2553     
     99700  -11747.608      64.783077     -11682.825      153.87341      170.3243       185.31714    
     99800  -11749.081      63.426516     -11685.654      153.82998      170.31278      185.37897    
     99900  -11751.202      63.672073     -11687.53       153.78565      170.30233      185.44081    
    100000  -11751.168      64.001604     -11687.166      153.74251      170.29369      185.50264    
Loop time of 54662.9 on 12 procs for 100000 steps with 1632 atoms

Performance: 0.158 ns/day, 151.841 hours/ns, 1.829 timesteps/s, 2.986 katom-step/s
43.1% CPU use with 12 MPI tasks x 1 OpenMP threads

MPI task timing breakdown:
Section |  min time  |  avg time  |  max time  |%varavg| %total
---------------------------------------------------------------
Pair    | 0.44015    | 332.82     | 1107.6     |2596.6 |  0.61
Neigh   | 0.0042276  | 0.495      | 2.1487     | 109.2 |  0.00
Comm    | 32.583     | 2063.2     | 6309       |6270.5 |  3.77
Output  | 208.61     | 214.64     | 219.59     |  23.6 |  0.39
Modify  | 40935      | 45944      | 48312      |1546.6 | 84.05
Other   |            | 6107       |            |       | 11.17

Nlocal:            136 ave         593 max           0 min
Histogram: 8 0 0 1 1 0 0 0 0 2
Nghost:        207.333 ave         755 max           0 min
Histogram: 8 0 0 0 0 0 1 1 0 2
Neighs:              0 ave           0 max           0 min
Histogram: 12 0 0 0 0 0 0 0 0 0

Total # of neighbors = 0
Ave neighs/atom = 0
Neighbor list builds = 362
Dangerous builds = 0
Total wall time: 15:11:19
