LAMMPS (2 Aug 2023 - Update 3)
OMP_NUM_THREADS environment is not set. Defaulting to 1 thread. (src/comm.cpp:98)
  using 1 OpenMP thread(s) per MPI task
Reading data file ...
  orthogonal box = (-100 -100 -2.3312511) to (100 100 38.891558)
  4 by 4 by 1 MPI processor grid
  reading atoms ...
  784 atoms
  read_data CPU = 0.005 seconds
Replication is creating a 1x1x17 = 17 times larger system...
  orthogonal box = (-100 -100 -2.3312511) to (100 100 698.45651)
  2 by 2 by 4 MPI processor grid
  13328 atoms
  replicate CPU = 0.001 seconds
System init for write_data ...
WARNING: Communication cutoff is 0.0. No ghost atoms will be generated. Atoms may get lost. (src/comm_brick.cpp:210)
Reading airebo potential file CH.airebo with DATE: 2011-10-25
Reading airebo potential file CH.airebo with DATE: 2011-10-25
Neighbor list info ...
  update: every = 1 steps, delay = 0 steps, check = yes
  max neighbors/atom: 2000, page size: 100000
  master list distance cutoff = 13.2
  ghost atom cutoff = 13.2
  binsize = 6.6, bins = 31 31 107
  5 neighbor lists, perpetual/occasional/extra = 5 0 0
  (1) pair airebo, perpetual, skip from (4)
      attributes: full, newton on, ghost
      pair build: skip/ghost
      stencil: none
      bin: none
  (2) pair airebo, perpetual, skip from (4)
      attributes: full, newton on, ghost
      pair build: skip/ghost
      stencil: none
      bin: none
  (3) pair lj/cut, perpetual, skip from (5)
      attributes: half, newton on, cut 13
      pair build: skip
      stencil: none
      bin: none
  (4) neighbor class addition, perpetual
      attributes: full, newton on, ghost
      pair build: full/bin/ghost
      stencil: full/ghost/bin/3d
      bin: standard
  (5) neighbor class addition, perpetual
      attributes: half, newton on, cut 13
      pair build: half/bin/atomonly/newton
      stencil: half/bin/3d
      bin: standard
Setting up sd style minimization ...
  Unit style    : metal
  Current step  : 0
Per MPI rank memory allocation (min/avg/max) = 11.48 | 11.57 | 11.86 Mbytes
   Step          Temp          E_pair         E_mol          TotEng         Press     
         0   0             -70780.297      0             -70780.297      6493.3023    
        22   0             -94150.339      0             -94150.339      191.11314    
Loop time of 0.643656 on 16 procs for 22 steps with 13328 atoms

97.6% CPU use with 16 MPI tasks x 1 OpenMP threads

Minimization stats:
  Stopping criterion = energy tolerance
  Energy initial, next-to-last, final = 
      -70780.297255772  -94143.0612959966   -94150.339438246
  Force two-norm initial, final = 4163.2108 36.23266
  Force max component initial, final = 135.10344 1.8602613
  Final line search alpha, max atom move = 0.048367349 0.089975905
  Iterations, force evaluations = 22 39

MPI task timing breakdown:
Section |  min time  |  avg time  |  max time  |%varavg| %total
---------------------------------------------------------------
Pair    | 0.56588    | 0.59887    | 0.63265    |   2.8 | 93.04
Neigh   | 0          | 0          | 0          |   0.0 |  0.00
Comm    | 0.0077986  | 0.040157   | 0.073448   |  10.7 |  6.24
Output  | 0          | 0          | 0          |   0.0 |  0.00
Modify  | 0          | 0          | 0          |   0.0 |  0.00
Other   |            | 0.004624   |            |       |  0.72

Nlocal:            833 ave         908 max         759 min
Histogram: 4 0 0 0 4 4 0 0 0 4
Nghost:           2997 ave        3071 max        2922 min
Histogram: 4 0 0 0 4 4 0 0 0 4
Neighs:              0 ave           0 max           0 min
Histogram: 16 0 0 0 0 0 0 0 0 0

Total # of neighbors = 0
Ave neighs/atom = 0
Neighbor list builds = 0
Dangerous builds = 0
Setting up Verlet run ...
  Unit style    : metal
  Current step  : 22
  Time step     : 0.001
Per MPI rank memory allocation (min/avg/max) = 12.1 | 12.2 | 12.48 Mbytes
   Step          Temp          E_pair         E_mol          TotEng         Press          Volume    
        22   300           -94150.339      0             -93633.544      210.80519      28031510     
Loop time of 2.3566e-05 on 16 procs for 0 steps with 13328 atoms

92.8% CPU use with 16 MPI tasks x 1 OpenMP threads

MPI task timing breakdown:
Section |  min time  |  avg time  |  max time  |%varavg| %total
---------------------------------------------------------------
Pair    | 0          | 0          | 0          |   0.0 |  0.00
Neigh   | 0          | 0          | 0          |   0.0 |  0.00
Comm    | 0          | 0          | 0          |   0.0 |  0.00
Output  | 0          | 0          | 0          |   0.0 |  0.00
Modify  | 0          | 0          | 0          |   0.0 |  0.00
Other   |            | 2.357e-05  |            |       |100.00

Nlocal:            833 ave         840 max         826 min
Histogram: 4 0 1 3 0 1 1 2 1 3
Nghost:           2997 ave        3004 max        2990 min
Histogram: 3 1 2 1 1 0 3 1 0 4
Neighs:              0 ave           0 max           0 min
Histogram: 16 0 0 0 0 0 0 0 0 0

Total # of neighbors = 0
Ave neighs/atom = 0
Neighbor list builds = 0
Dangerous builds = 0
WARNING: New thermo_style command, previous thermo_modify settings will be lost (src/output.cpp:903)
WARNING: Dump 2 includes no atom IDs and is not sorted by ID. This may complicate post-processing tasks or visualization (src/dump.cpp:221)
Setting up Verlet run ...
  Unit style    : metal
  Current step  : 0
  Time step     : 0.001
Per MPI rank memory allocation (min/avg/max) = 13.6 | 13.7 | 13.98 Mbytes
   Step         PotEng         KinEng         TotEng           Lx             Ly             Lz      
         0  -94150.339      516.79499     -93633.544      200            200            700.78776    
       100  -93959.25       364.01992     -93595.23       200.01955      200.0229       701.13815    
       200  -93924.564      382.41412     -93542.15       200.02583      200.02691      701.48854    
       300  -93932.484      448.08019     -93484.403      200.00694      199.99796      701.83894    
       400  -93905.107      477.45259     -93427.654      200.01941      200.01403      702.18933    
       500  -93844.189      471.39846     -93372.79       200.02768      200.02667      702.53973    
       600  -93740.878      423.26942     -93317.608      200.01174      200.00086      702.89012    
       700  -93760.676      500.182       -93260.494      200.02209      200.01303      703.24051    
       800  -93702.019      491.07454     -93210.945      200.02425      200.02218      703.59091    
       900  -93694.515      518.25404     -93176.261      200.00712      199.99494      703.9413     
      1000  -93768.847      583.68159     -93185.166      200.02319      200.00941      704.2917     
      1100  -93774.497      537.97017     -93236.526      200.02147      200.01557      704.64209    
      1200  -93778.564      502.67355     -93275.89       200.00057      199.98752      704.99248    
      1300  -93805.316      516.85556     -93288.46       200.01819      200.00192      705.34288    
      1400  -93733.172      477.56354     -93255.608      200.02034      200.01449      705.69327    
      1500  -93698.25       489.54137     -93208.709      199.9961       199.98435      706.04366    
      1600  -93737.469      567.38364     -93170.086      200.01485      199.9947       706.39406    
      1700  -93694.655      529.44593     -93165.209      200.0207       200.00727      706.74445    
      1800  -93720.79       522.35816     -93198.432      199.99449      199.98066      707.09485    
      1900  -93765.254      534.79151     -93230.463      200.0088       199.98746      707.44524    
      2000  -93728.98       485.53784     -93243.442      200.01477      199.9967       707.79563    
      2100  -93710.364      489.7991      -93220.565      199.99155      199.97799      708.14603    
      2200  -93725.349      544.03253     -93181.316      200.00374      199.98348      708.49642    
      2300  -93674.252      516.56535     -93157.686      200.00912      199.987        708.84682    
      2400  -93696.473      534.21691     -93162.256      199.98641      199.96927      709.19721    
      2500  -93716.65       527.7913      -93188.859      199.99954      199.97914      709.5476     
      2600  -93697.86       492.8815      -93204.979      200.00503      199.97995      709.898      
      2700  -93685.313      496.27332     -93189.04       199.9817       199.96134      710.24839    
      2800  -93687.197      532.75387     -93154.444      199.99224      199.97182      710.59879    
      2900  -93651.564      519.33182     -93132.232      200.00095      199.9737       710.94918    
      3000  -93664.262      528.21325     -93136.048      199.97815      199.95497      711.29957    
      3100  -93689.653      531.53391     -93158.119      199.98528      199.96408      711.64997    
      3200  -93668.083      496.37598     -93171.707      199.99235      199.96432      712.00036    
      3300  -93659.214      499.56191     -93159.652      199.97394      199.948        712.35075    
      3400  -93662.545      532.60277     -93129.942      199.97964      199.95721      712.70115    
      3500  -93627.036      518.03106     -93109.005      199.98416      199.95548      713.05154    
      3600  -93634.065      522.30359     -93111.762      199.96812      199.93876      713.40194    
      3700  -93640.774      514.00116     -93126.773      199.97438      199.94992      713.75233    
      3800  -93633.57       504.92202     -93128.648      199.97625      199.94768      714.10272    
      3900  -93616.173      507.69556     -93108.478      199.9614       199.92958      714.45312    
      4000  -93613.271      529.52664     -93083.744      199.96814      199.94058      714.80351    
      4100  -93600.674      525.89643     -93074.778      199.96864      199.93964      715.15391    
      4200  -93603.153      517.12277     -93086.03       199.95469      199.92179      715.5043     
      4300  -93609.245      511.4617      -93097.784      199.96048      199.93117      715.85469    
      4400  -93596.456      505.77403     -93090.682      199.95884      199.92954      716.20509    
      4500  -93575.653      510.96475     -93064.688      199.94754      199.9133       716.55548    
      4600  -93571.279      530.48906     -93040.79       199.95372      199.92137      716.90588    
      4700  -93561.883      527.49796     -93034.385      199.94843      199.91856      717.25627    
      4800  -93561.098      515.38117     -93045.716      199.93838      199.90394      717.60666    
      4900  -93561.405      507.70348     -93053.702      199.94616      199.91142      717.95706    
      5000  -93557.849      512.40033     -93045.449      199.93841      199.90759      718.30745    
      5100  -93536.786      513.35139     -93023.435      199.92806      199.89472      718.65784    
      5200  -93525.056      522.15759     -93002.898      199.93739      199.90007      719.00824    
      5300  -93514.115      521.65532     -92992.46       199.92901      199.89574      719.35863    
      5400  -93509.022      515.82234     -92993.2        199.91871      199.88507      719.70903    
      5500  -93507.642      512.44319     -92995.199      199.92694      199.88869      720.05942    
      5600  -93505.83       514.49545     -92991.335      199.9183       199.88276      720.40981    
      5700  -93496.271      513.03141     -92983.24       199.90856      199.87526      720.76021    
      5800  -93484.473      512.68397     -92971.789      199.9159       199.8777       721.1106     
      5900  -93473.463      518.4062      -92955.056      199.90743      199.86925      721.461      
      6000  -93459.02       520.80833     -92938.212      199.89859      199.8635       721.81139    
      6100  -93441.133      512.91662     -92928.217      199.90432      199.86642      722.16178    
      6200  -93448.856      522.15798     -92926.698      199.89587      199.85615      722.51218    
      6300  -93445.479      517.04599     -92928.433      199.88824      199.85099      722.86257    
      6400  -93431.178      505.09168     -92926.086      199.89183      199.85379      723.21296    
      6500  -93426.791      514.04883     -92912.742      199.88332      199.84299      723.56336    
      6600  -93416.757      523.19654     -92893.56       199.8771       199.83805      723.91375    
      6700  -93397.675      517.39424     -92880.281      199.87888      199.84005      724.26415    
      6800  -93396.925      520.51168     -92876.413      199.87014      199.82816      724.61454    
      6900  -93382.863      507.45081     -92875.412      199.86528      199.82461      724.96493    
      7000  -93374.338      507.81539     -92866.523      199.86553      199.82617      725.31533    
      7100  -93362.62       516.57341     -92846.046      199.85592      199.81315      725.66572    
      7200  -93354.868      527.12313     -92827.745      199.85308      199.80909      726.01612    
      7300  -93342.554      519.07462     -92823.479      199.8513       199.80986      726.36651    
      7400  -93352.713      523.9483      -92828.764      199.84087      199.79816      726.7169     
      7500  -93335.45       507.42594     -92828.025      199.83932      199.79467      727.0673     
      7600  -93322.895      509.92173     -92812.973      199.83592      199.79327      727.41769    
      7700  -93313.296      524.85761     -92788.439      199.82568      199.78224      727.76809    
      7800  -93296.228      526.60068     -92769.627      199.8254       199.77909      728.11848    
      7900  -93287.392      524.27328     -92763.118      199.82033      199.77652      728.46887    
      8000  -93284.557      519.36929     -92765.188      199.80962      199.76593      728.81927    
      8100  -93273.482      510.21286     -92763.269      199.8095       199.76279      729.16966    
      8200  -93260.937      509.98303     -92750.954      199.80433      199.75849      729.52005    
      8300  -93248.115      517.77324     -92730.342      199.79409      199.7496       729.87045    
      8400  -93230.029      517.42163     -92712.607      199.79262      199.7465       730.22084    
      8500  -93224.442      521.05443     -92703.387      199.78727      199.73954      730.57124    
      8600  -93211.982      513.67957     -92698.303      199.77781      199.73103      730.92163    
      8700  -93204.316      513.78945     -92690.526      199.77526      199.72882      731.27202    
      8800  -93192.762      514.4897      -92678.272      199.76905      199.72062      731.62242    
      8900  -93188.163      521.39581     -92666.767      199.76026      199.7117       731.97281    
      9000  -93176.001      516.74465     -92659.257      199.75649      199.70939      732.32321    
      9100  -93156.318      507.67112     -92648.647      199.74977      199.70065      732.6736     
      9200  -93142.968      514.56544     -92628.403      199.7418       199.69145      733.02399    
      9300  -93132.198      520.18553     -92612.013      199.73719      199.68821      733.37439    
      9400  -93126.06       523.12854     -92602.932      199.7293       199.67878      733.72478    
      9500  -93120.174      519.51943     -92600.654      199.72145      199.67009      734.07518    
      9600  -93112.011      518.37745     -92593.633      199.71671      199.66589      734.42557    
      9700  -93092.465      512.7438      -92579.721      199.70793      199.65647      734.77596    
      9800  -93078.234      518.37369     -92559.86       199.70022      199.6473       735.12636    
      9900  -93066.975      520.1928      -92546.782      199.69487      199.64191      735.47675    
     10000  -93057.127      517.99645     -92539.131      199.68603      199.6324       735.82714    
     10100  -93046.326      514.1433      -92532.183      199.67818      199.62358      736.17754    
     10200  -93037.076      516.40638     -92520.67       199.67223      199.61754      736.52793    
     10300  -93020.666      514.13534     -92506.531      199.66254      199.60828      736.87833    
     10400  -93008.44       515.61269     -92492.827      199.65467      199.5991       737.22872    
     10500  -92992.486      511.61531     -92480.871      199.64923      199.59234      737.57911    
     10600  -92982.92       515.52305     -92467.397      199.63845      199.58336      737.92951    
     10700  -92967.056      517.93449     -92449.121      199.63043      199.57417      738.2799     
     10800  -92957.296      525.01849     -92432.277      199.62503      199.56692      738.6303     
     10900  -92943.291      516.06079     -92427.23       199.61363      199.55725      738.98069    
     11000  -92935.004      515.69903     -92419.305      199.60535      199.54841      739.33108    
     11100  -92916.688      510.9043      -92405.784      199.5997       199.54048      739.68148    
     11200  -92910.139      521.64678     -92388.492      199.58744      199.52974      740.03187    
     11300  -92895.1        521.85291     -92373.248      199.5789       199.52267      740.38226    
     11400  -92877.275      509.83046     -92367.444      199.57252      199.51342      740.73266    
     11500  -92873.238      513.25473     -92359.983      199.56096      199.50126      741.08305    
     11600  -92853.48       511.13794     -92342.342      199.55157      199.49579      741.43345    
     11700  -92845.08       520.19285     -92324.887      199.54289      199.48557      741.78384    
     11800  -92834.846      521.31974     -92313.526      199.53309      199.47297      742.13423    
     11900  -92819.933      515.50989     -92304.423      199.52423      199.46677      742.48463    
     12000  -92802.705      514.43677     -92288.268      199.51357      199.45594      742.83502    
     12100  -92781.834      518.19894     -92263.635      199.50325      199.44457      743.18542    
     12200  -92773.383      521.76331     -92251.619      199.49461      199.43659      743.53581    
     12300  -92762.031      516.78857     -92245.243      199.48331      199.42525      743.8862     
     12400  -92754.848      516.9202      -92237.928      199.47282      199.41448      744.2366     
     12500  -92731.79       506.4468      -92225.343      199.4634       199.40535      744.58699    
     12600  -92723.326      519.48058     -92203.846      199.45158      199.39447      744.93739    
     12700  -92702.531      516.79497     -92185.736      199.44093      199.38287      745.28778    
     12800  -92695.503      523.3068      -92172.196      199.43048      199.37343      745.63817    
     12900  -92677.457      515.66275     -92161.794      199.41873      199.362        745.98857    
     13000  -92665.604      511.375       -92154.229      199.40812      199.34929      746.33896    
     13100  -92656.207      510.66761     -92145.539      199.39731      199.3396       746.68935    
     13200  -92636.955      509.72898     -92127.226      199.38432      199.32831      747.03975    
     13300  -92620.49       517.84881     -92102.641      199.37295      199.31544      747.39014    
     13400  -92601.56       514.43324     -92087.127      199.36249      199.30451      747.74054    
     13500  -92590.011      514.30057     -92075.71       199.34953      199.29127      748.09093    
     13600  -92581.828      514.44742     -92067.38       199.3372       199.27931      748.44132    
     13700  -92566.243      511.87299     -92054.37       199.32515      199.2689       748.79172    
     13800  -92547.474      517.64663     -92029.827      199.31148      199.25468      749.14211    
     13900  -92527.929      515.32565     -92012.603      199.30027      199.24129      749.49251    
     14000  -92518.257      516.6732      -92001.584      199.2867       199.22996      749.8429     
     14100  -92511.875      519.15855     -91992.717      199.27231      199.2159       750.19329    
     14200  -92495.758      514.80268     -91980.955      199.26155      199.20255      750.54369    
     14300  -92476.186      515.01874     -91961.167      199.24739      199.19059      750.89408    
     14400  -92456.864      521.35718     -91935.507      199.23248      199.17651      751.24448    
     14500  -92440.472      518.99853     -91921.474      199.22162      199.16216      751.59487    
     14600  -92430.822      518.47957     -91912.343      199.20601      199.14912      751.94526    
     14700  -92418.845      516.09399     -91902.751      199.19101      199.13542      752.29566    
     14800  -92400.9        512.06735     -91888.833      199.17964      199.12012      752.64605    
     14900  -92385.137      517.28278     -91867.854      199.16391      199.10597      752.99644    
     15000  -92361.208      518.0413      -91843.166      199.14871      199.09254      753.34684    
     15100  -92344.598      516.85629     -91827.741      199.13598      199.07676      753.69723    
     15200  -92331.969      516.58422     -91815.385      199.12005      199.0614       754.04763    
     15300  -92321.115      513.8327      -91807.282      199.10397      199.04811      754.39802    
     15400  -92309.218      513.35348     -91795.864      199.09013      199.03154      754.74841    
     15500  -92288.959      509.53016     -91779.429      199.07452      199.01475      755.09881    
     15600  -92274.77       515.15405     -91759.616      199.0587       199.00117      755.4492     
     15700  -92255.211      514.85699     -91740.354      199.04321      198.98457      755.7996     
     15800  -92242.855      520.58595     -91722.269      199.02678      198.96754      756.14999    
     15900  -92222.622      513.28512     -91709.336      199.01083      198.95247      756.50038    
     16000  -92215.339      513.06722     -91702.272      198.9953       198.93458      756.85078    
     16100  -92197.202      511.18746     -91686.014      198.97845      198.91797      757.20117    
     16200  -92180.929      515.39014     -91665.539      198.96155      198.90269      757.55157    
     16300  -92169.153      522.24699     -91646.906      198.94537      198.88462      757.90196    
     16400  -92142.342      513.29123     -91629.051      198.92859      198.86723      758.25235    
     16500  -92128.088      520.50431     -91607.584      198.91105      198.85137      758.60275    
     16600  -92111.066      525.09734     -91585.968      198.89377      198.83313      758.95314    
     16700  -92091.059      514.92474     -91576.135      198.8775       198.81511      759.30353    
     16800  -92078.758      511.10173     -91567.656      198.85835      198.799        759.65393    
     16900  -92063.971      513.69871     -91550.272      198.84069      198.78052      760.00432    
     17000  -92049.393      520.27471     -91529.118      198.82419      198.76114      760.35472    
     17100  -92026.579      519.14966     -91507.429      198.80542      198.74382      760.70511    
     17200  -92007.065      519.55068     -91487.514      198.78633      198.72558      761.0555     
     17300  -91992.635      522.92222     -91469.712      198.76893      198.70626      761.4059     
     17400  -91975.663      513.67937     -91461.984      198.75005      198.68779      761.75629    
     17500  -91964.901      515.08912     -91449.811      198.73107      198.66799      762.10669    
     17600  -91944.898      514.29113     -91430.607      198.71247      198.64781      762.45708    
     17700  -91923.966      517.5882      -91406.378      198.69252      198.62978      762.80747    
     17800  -91911.056      523.06345     -91387.993      198.67197      198.60952      763.15787    
     17900  -91901.043      525.59442     -91375.449      198.65418      198.58757      763.50826    
     18000  -91877.252      514.71515     -91362.537      198.6346       198.56838      763.85865    
     18100  -91860.635      514.98297     -91345.652      198.61232      198.54869      764.20905    
     18200  -91838.56       516.5362      -91322.023      198.59367      198.52715      764.55944    
     18300  -91822.163      520.88699     -91301.276      198.5739       198.50624      764.90984    
     18400  -91808.729      521.00106     -91287.728      198.55194      198.4851       765.26023    
     18500  -91790.812      514.93404     -91275.878      198.53262      198.46392      765.61062    
     18600  -91773.433      513.1911      -91260.242      198.51197      198.44334      765.96102    
     18700  -91752.533      513.33277     -91239.2        198.48972      198.42094      766.31141    
     18800  -91733.5        519.45661     -91214.044      198.46982      198.39924      766.66181    
     18900  -91719.871      522.82891     -91197.042      198.44776      198.37861      767.0122     
     19000  -91701.969      516.58009     -91185.389      198.42515      198.35639      767.36259    
     19100  -91686.064      513.17789     -91172.886      198.40558      198.33438      767.71299    
     19200  -91667.475      513.09036     -91154.385      198.38394      198.31244      768.06338    
     19300  -91649.409      519.77809     -91129.631      198.36108      198.2896       768.41378    
     19400  -91630.907      522.08307     -91108.824      198.34032      198.26786      768.76417    
     19500  -91616.815      522.36907     -91094.446      198.3177       198.24554      769.11456    
     19600  -91601.144      519.75511     -91081.389      198.29448      198.22294      769.46496    
     19700  -91577.836      513.10936     -91064.726      198.27378      198.20092      769.81535    
     19800  -91562.164      521.77711     -91040.387      198.24994      198.17855      770.16574    
     19900  -91540.361      524.99713     -91015.364      198.22672      198.15545      770.51614    
     20000  -91522.485      521.59009     -91000.895      198.20609      198.13209      770.86653    
     20100  -91512.369      523.1045      -90989.265      198.18196      198.10928      771.21693    
     20200  -91493.147      518.66677     -90974.481      198.1587       198.08691      771.56732    
     20300  -91470.687      515.14769     -90955.54       198.13748      198.06375      771.91771    
     20400  -91448.276      520.4801      -90927.796      198.11335      198.04027      772.26811    
     20500  -91427.192      520.72409     -90906.468      198.09015      198.01786      772.6185     
     20600  -91410.038      518.00024     -90892.038      198.06717      197.99452      772.9689     
     20700  -91397.642      517.67821     -90879.964      198.04267      197.97092      773.31929    
     20800  -91380.593      517.41855     -90863.174      198.01997      197.94778      773.66968    
     20900  -91356.801      515.72286     -90841.078      197.99722      197.92349      774.02008    
     21000  -91328.457      515.50211     -90812.955      197.97306      197.90007      774.37047    
     21100  -91310.712      521.08612     -90789.625      197.94867      197.87703      774.72087    
     21200  -91294.356      520.64674     -90773.709      197.92515      197.85322      775.07126    
     21300  -91277.009      517.64798     -90759.361      197.90068      197.82935      775.42165    
     21400  -91263.516      517.35585     -90746.16       197.87666      197.80485      775.77205    
     21500  -91245.383      513.17024     -90732.213      197.85445      197.7797       776.12244    
     21600  -91226.139      513.47974     -90712.659      197.8295       197.75596      776.47283    
     21700  -91203.629      514.12213     -90689.507      197.80399      197.73337      776.82323    
     21800  -91183.234      517.51998     -90665.714      197.78136      197.70832      777.17362    
     21900  -91166.592      520.99294     -90645.599      197.75662      197.68321      777.52402    
     22000  -91151.409      519.56808     -90631.84       197.73222      197.66018      777.87441    
     22100  -91130.839      514.2833      -90616.556      197.70932      197.63487      778.2248     
     22200  -91108.362      514.35473     -90594.007      197.6842       197.61061      778.5752     
     22300  -91081.957      513.29967     -90568.658      197.65926      197.58841      778.92559    
     22400  -91067.165      519.55898     -90547.606      197.63545      197.56262      779.27599    
     22500  -91055.989      521.65361     -90534.336      197.61129      197.5383       779.62638    
     22600  -91037.324      518.56279     -90518.761      197.5866       197.51479      779.97677    
     22700  -91008.259      511.29467     -90496.965      197.56362      197.48866      780.32717    
     22800  -90990.73       518.87715     -90471.853      197.53971      197.46481      780.67756    
     22900  -90965.781      515.93963     -90449.842      197.51303      197.44215      781.02795    
     23000  -90952.061      519.82072     -90432.24       197.48992      197.41653      781.37835    
     23100  -90933.542      516.69023     -90416.851      197.46679      197.39145      781.72874    
     23200  -90913.066      514.05766     -90399.008      197.44124      197.36784      782.07914    
     23300  -90895.12       516.30591     -90378.814      197.4181       197.34298      782.42953    
     23400  -90870.737      516.85113     -90353.886      197.39384      197.31814      782.77992    
     23500  -90851.888      523.11616     -90328.772      197.3685       197.29554      783.13032    
     23600  -90832.937      520.07208     -90312.865      197.34566      197.2701       783.48071    
     23700  -90816.131      511.83547     -90304.295      197.32188      197.24488      783.83111    
     23800  -90795.584      510.34643     -90285.237      197.29729      197.22268      784.1815     
     23900  -90777.763      516.1248      -90261.638      197.27448      197.19715      784.53189    
     24000  -90751.632      517.51527     -90234.117      197.25148      197.17347      784.88229    
     24100  -90732.612      520.5341      -90212.078      197.22624      197.15132      785.23268    
     24200  -90711.688      516.3772      -90195.311      197.20376      197.12633      785.58308    
     24300  -90694.942      513.90206     -90181.04       197.18112      197.10258      785.93347    
     24400  -90682.136      510.61213     -90171.524      197.15602      197.08028      786.28386    
     24500  -90660.001      507.0293      -90152.972      197.13423      197.05605      786.63426    
     24600  -90633.571      508.45111     -90125.12       197.11218      197.03211      786.98465    
     24700  -90613.274      516.32511     -90096.949      197.08757      197.01026      787.33504    
     24800  -90584.951      515.06286     -90069.888      197.06551      196.98696      787.68544    
     24900  -90567.212      518.49749     -90048.715      197.04243      196.96361      788.03583    
     25000  -90551.998      517.11562     -90034.883      197.01887      196.94158      788.38623    
     25100  -90529.996      511.07479     -90018.922      196.99732      196.91792      788.73662    
     25200  -90510.935      516.1562      -89994.779      196.97529      196.89446      789.08701    
     25300  -90483.985      513.73911     -89970.246      196.95215      196.87218      789.43741    
     25400  -90470.817      522.13374     -89948.683      196.93108      196.84866      789.7878     
     25500  -90453.58       521.62459     -89931.955      196.9089       196.82602      790.1382     
     25600  -90432.632      514.65301     -89917.979      196.88474      196.80493      790.48859    
     25700  -90406.768      509.34612     -89897.422      196.86366      196.78287      790.83898    
     25800  -90385.998      522.39687     -89863.601      196.84276      196.75904      791.18938    
     25900  -90364.77       524.48482     -89840.285      196.82078      196.7373       791.53977    
     26000  -90342.136      519.51886     -89822.617      196.79962      196.7154       791.89017    
     26100  -90325.516      515.87596     -89809.64       196.778        196.69247      792.24056    
     26200  -90306.134      513.81247     -89792.322      196.75624      196.67232      792.59095    
     26300  -90283.877      515.23614     -89768.64       196.7349       196.65148      792.94135    
     26400  -90258.238      518.90807     -89739.33       196.71479      196.6286       793.29174    
     26500  -90232.356      514.93495     -89717.421      196.6945       196.60805      793.64213    
     26600  -90216.397      517.73336     -89698.663      196.67338      196.58688      793.99253    
     26700  -90197.429      515.96251     -89681.466      196.653        196.56567      794.34292    
     26800  -90183.669      516.86075     -89666.809      196.63189      196.54635      794.69332    
     26900  -90162.122      511.31362     -89650.809      196.61139      196.52561      795.04371    
     27000  -90137.425      511.41571     -89626.01       196.59237      196.50416      795.3941     
     27100  -90112.383      517.84005     -89594.543      196.57248      196.48491      795.7445     
     27200  -90085.766      516.59373     -89569.172      196.55167      196.46579      796.09489    
     27300  -90069.008      521.55278     -89547.455      196.53257      196.44518      796.44529    
     27400  -90052.558      520.06611     -89532.491      196.51405      196.42556      796.79568    
     27500  -90028.672      511.82455     -89516.848      196.49361      196.40678      797.14607    
     27600  -90005.392      511.96612     -89493.426      196.47528      196.38725      797.49647    
     27700  -89981.898      515.52308     -89466.374      196.4562       196.36877      797.84686    
     27800  -89961.795      519.88787     -89441.907      196.43575      196.35094      798.19725    
     27900  -89942.221      523.64014     -89418.581      196.41881      196.33146      798.54765    
     28000  -89917.647      516.2486      -89401.399      196.40028      196.31193      798.89804    
     28100  -89899.808      511.91423     -89387.894      196.38115      196.29485      799.24844    
     28200  -89874.403      510.25308     -89364.15       196.36389      196.27621      799.59883    
     28300  -89850.285      513.74106     -89336.544      196.34532      196.25778      799.94922    
     28400  -89830.279      518.96002     -89311.319      196.32669      196.24119      800.29962    
     28500  -89809.078      518.66121     -89290.417      196.30876      196.22271      800.65001    
     28600  -89790.733      515.7107      -89275.023      196.29077      196.2051       801.00041    
     28700  -89770.562      511.38757     -89259.175      196.27251      196.18836      801.3508     
     28800  -89747.48       512.59014     -89234.89       196.25589      196.16954      801.70119    
     28900  -89716.262      515.35891     -89200.903      196.23902      196.1519       802.05159    
     29000  -89695.701      518.99745     -89176.704      196.22099      196.13536      802.40198    
     29100  -89681.039      521.24275     -89159.796      196.20424      196.11754      802.75238    
     29200  -89658.232      513.91328     -89144.319      196.18644      196.10088      803.10277    
     29300  -89639.857      516.24561     -89123.611      196.16814      196.0858       803.45316    
     29400  -89615.551      518.12002     -89097.431      196.15209      196.06823      803.80356    
     29500  -89590.006      524.54026     -89065.466      196.13558      196.05116      804.15395    
     29600  -89566.99       523.63541     -89043.355      196.11899      196.03507      804.50434    
     29700  -89543.042      516.76982     -89026.272      196.10281      196.0173       804.85474    
     29800  -89522.057      514.21779     -89007.839      196.08636      196.00184      805.20513    
     29900  -89502.181      516.34491     -88985.836      196.06943      195.98587      805.55553    
     30000  -89481.391      516.79441     -88964.596      196.05369      195.96839      805.90592    
     30100  -89457.709      511.95223     -88945.757      196.0376       195.95364      806.25631    
     30200  -89430.75       508.1351      -88922.615      196.02007      195.93819      806.60671    
     30300  -89407.935      514.18579     -88893.749      196.00432      195.92152      806.9571     
     30400  -89387.28       518.67958     -88868.6        195.9882       195.90669      807.3075     
     30500  -89367.176      515.50542     -88851.671      195.97233      195.88986      807.65789    
     30600  -89345.672      511.30742     -88834.364      195.95876      195.87229      808.00828    
     30700  -89316.944      508.92433     -88808.02       195.94292      195.85668      808.35868    
     30800  -89298.664      516.20968     -88782.454      195.92656      195.84134      808.70907    
     30900  -89277.05       519.1269      -88757.923      195.91114      195.82572      809.05947    
     31000  -89258.838      521.78461     -88737.054      195.89398      195.81156      809.40986    
     31100  -89236.029      513.69129     -88722.338      195.87769      195.79747      809.76025    
     31200  -89216.186      514.40586     -88701.78       195.8637       195.78041      810.11065    
     31300  -89183.179      510.03093     -88673.148      195.84926      195.76509      810.46104    
     31400  -89164.889      517.57969     -88647.309      195.83464      195.74935      810.81143    
     31500  -89137.134      514.86871     -88622.265      195.82088      195.733        811.16183    
     31600  -89113.437      515.06551     -88598.372      195.80497      195.71924      811.51222    
     31700  -89095.387      516.41994     -88578.967      195.78885      195.70539      811.86262    
     31800  -89074.806      511.75121     -88563.055      195.7743       195.69093      812.21301    
     31900  -89051.16       511.89367     -88539.267      195.75897      195.67645      812.5634     
     32000  -89024.002      517.13483     -88506.867      195.74446      195.66144      812.9138     
     32100  -89003.007      521.90872     -88481.098      195.73102      195.64558      813.26419    
     32200  -88978          517.86746     -88460.133      195.71564      195.63081      813.61459    
     32300  -88958.445      515.46474     -88442.98       195.70053      195.6168       813.96498    
     32400  -88934.272      509.81158     -88424.46       195.68616      195.60196      814.31537    
     32500  -88915.818      517.30699     -88398.511      195.67189      195.58694      814.66577    
     32600  -88884.437      515.25062     -88369.187      195.6575       195.5722       815.01616    
     32700  -88860.474      515.86714     -88344.607      195.64325      195.55687      815.36655    
     32800  -88843.089      520.28227     -88322.807      195.62774      195.54224      815.71695    
     32900  -88822.658      516.46867     -88306.19       195.61253      195.52848      816.06734    
     33000  -88801.456      514.90554     -88286.55       195.5988       195.51305      816.41774    
     33100  -88776.498      517.41121     -88259.087      195.58425      195.49856      816.76813    
     33200  -88744.488      516.77418     -88227.714      195.56991      195.48431      817.11852    
     33300  -88719.197      515.6824      -88203.515      195.55605      195.46891      817.46892    
     33400  -88704          519.77314     -88184.227      195.54172      195.4537       817.81931    
     33500  -88681.429      513.33688     -88168.092      195.52775      195.43912      818.16971    
     33600  -88664.287      518.74837     -88145.539      195.51399      195.42396      818.5201     
     33700  -88629.875      512.00961     -88117.865      195.49927      195.40963      818.87049    
     33800  -88605.769      517.34086     -88088.428      195.48448      195.39636      819.22089    
     33900  -88585.057      520.33377     -88064.723      195.46946      195.38233      819.57128    
     34000  -88564.479      520.25483     -88044.224      195.45441      195.36836      819.92168    
     34100  -88544.289      517.86104     -88026.427      195.44057      195.35406      820.27207    
     34200  -88522.166      517.00489     -88005.162      195.42713      195.33824      820.62246    
     34300  -88494.202      516.42883     -87977.774      195.41397      195.32405      820.97286    
     34400  -88466.192      523.98981     -87942.202      195.40025      195.30893      821.32325    
     34500  -88438.806      518.1124      -87920.694      195.38631      195.29429      821.67364    
     34600  -88419.27       515.04152     -87904.228      195.37119      195.28147      822.02404    
     34700  -88401.513      516.91048     -87884.603      195.35627      195.26792      822.37443    
     34800  -88382.521      520.04486     -87862.476      195.34165      195.25431      822.72483    
     34900  -88356.803      516.01148     -87840.791      195.32716      195.24102      823.07522    
     35000  -88329.158      512.63644     -87816.522      195.31413      195.22657      823.42561    
     35100  -88304.257      517.86128     -87786.396      195.30024      195.21187      823.77601    
     35200  -88280.058      520.964       -87759.094      195.28541      195.19867      824.1264     
     35300  -88258.535      518.82117     -87739.714      195.27227      195.18408      824.4768     
     35400  -88236.137      513.34634     -87722.79       195.25782      195.16984      824.82719    
     35500  -88208.86       512.00886     -87696.851      195.24337      195.1568       825.17758    
     35600  -88185.17       516.88097     -87668.289      195.22981      195.1416       825.52798    
     35700  -88160.965      518.51588     -87642.449      195.21583      195.12755      825.87837    
     35800  -88139.113      518.59902     -87620.514      195.20066      195.11397      826.22877    
     35900  -88114.476      509.71813     -87604.758      195.18625      195.10021      826.57916    
     36000  -88097.078      512.60383     -87584.474      195.17069      195.0871       826.92955    
     36100  -88068.05       513.57268     -87554.478      195.15586      195.07354      827.27995    
     36200  -88038.581      512.08703     -87526.493      195.14237      195.05831      827.63034    
     36300  -88014.014      515.53826     -87498.476      195.1285       195.04345      827.98073    
     36400  -87993.287      520.89526     -87472.392      195.11446      195.02931      828.33113    
     36500  -87970.084      518.40028     -87451.684      195.10044      195.01401      828.68152    
     36600  -87951.038      515.74064     -87435.298      195.08677      195.0002       829.03192    
     36700  -87922.127      510.46514     -87411.661      195.07055      194.98651      829.38231    
     36800  -87896.621      514.8373      -87381.783      195.05608      194.9725       829.7327     
     36900  -87873.463      521.90713     -87351.556      195.04142      194.95874      830.0831     
     37000  -87854.326      526.90472     -87327.422      195.02539      194.94407      830.43349    
     37100  -87822.968      516.73794     -87306.23       195.01176      194.93011      830.78389    
     37200  -87798.734      511.87978     -87286.854      194.99681      194.91531      831.13428    
     37300  -87776.668      512.39784     -87264.27       194.98189      194.90051      831.48467    
     37400  -87742.902      512.85216     -87230.05       194.96806      194.88564      831.83507    
     37500  -87716.034      514.8729      -87201.161      194.95314      194.86999      832.18546    
     37600  -87703.647      522.56476     -87181.082      194.93814      194.855        832.53586    
     37700  -87679.034      514.9963      -87164.038      194.92377      194.83959      832.88625    
     37800  -87655.904      513.46807     -87142.436      194.9085       194.82458      833.23664    
     37900  -87631.427      515.44237     -87115.985      194.8929       194.80996      833.58704    
     38000  -87598.904      516.01932     -87082.885      194.87794      194.79608      833.93743    
     38100  -87580.532      524.23099     -87056.301      194.86108      194.78077      834.28782    
     38200  -87550.254      514.13067     -87036.123      194.84591      194.76655      834.63822    
     38300  -87532.979      516.60552     -87016.374      194.83116      194.75099      834.98861    
     38400  -87506.428      512.88766     -86993.54       194.8159       194.73479      835.33901    
     38500  -87490.534      520.37562     -86970.159      194.80198      194.71974      835.6894     
     38600  -87462.341      511.29001     -86951.051      194.78699      194.70344      836.03979    
     38700  -87435.364      506.91339     -86928.451      194.77181      194.68792      836.39019    
     38800  -87414.273      520.34405     -86893.929      194.75694      194.673        836.74058    
     38900  -87377.269      513.55296     -86863.716      194.74091      194.65714      837.09098    
     39000  -87358.627      519.67496     -86838.952      194.72475      194.64231      837.44137    
     39100  -87339.76       518.99654     -86820.764      194.70876      194.62807      837.79176    
     39200  -87308.246      510.51006     -86797.736      194.6925       194.61236      838.14216    
     39300  -87277.942      510.57857     -86767.364      194.67626      194.59704      838.49255    
     39400  -87257.537      518.06868     -86739.468      194.66068      194.58149      838.84294    
     39500  -87239.837      522.73051     -86717.107      194.64474      194.56413      839.19334    
     39600  -87209.501      511.92178     -86697.579      194.62972      194.54784      839.54373    
     39700  -87185.188      512.70074     -86672.487      194.61421      194.53135      839.89413    
     39800  -87160.526      517.47987     -86643.046      194.59826      194.51413      840.24452    
     39900  -87134.05       518.35901     -86615.691      194.58273      194.49788      840.59491    
     40000  -87107.463      515.66853     -86591.795      194.5658       194.4816       840.94531    
     40100  -87090.635      519.76906     -86570.866      194.54902      194.46491      841.2957     
     40200  -87062.691      513.90045     -86548.791      194.53296      194.44886      841.6461     
     40300  -87034.838      512.28223     -86522.556      194.51555      194.43259      841.99649    
     40400  -87012.112      517.4109      -86494.701      194.49892      194.41621      842.34688    
     40500  -86990.069      521.96882     -86468.1        194.4828       194.39957      842.69728    
     40600  -86964.793      518.70353     -86446.09       194.4654       194.38282      843.04767    
     40700  -86943.802      512.80554     -86430.996      194.449        194.36547      843.39807    
     40800  -86915.98       511.3333      -86404.647      194.43342      194.34818      843.74846    
     40900  -86893.337      521.12989     -86372.207      194.4161       194.33073      844.09885    
     41000  -86859.511      516.69881     -86342.812      194.40014      194.31364      844.44925    
     41100  -86841.245      521.60773     -86319.637      194.38392      194.29539      844.79964    
     41200  -86816.546      516.55156     -86299.995      194.36637      194.27821      845.15003    
     41300  -86788.902      513.34537     -86275.557      194.34939      194.26243      845.50043    
     41400  -86765.95       518.05748     -86247.892      194.33154      194.24521      845.85082    
     41500  -86736.524      517.39256     -86219.131      194.31338      194.22927      846.20122    
     41600  -86709.152      517.30509     -86191.847      194.2954       194.2135       846.55161    
     41700  -86685.364      516.12041     -86169.244      194.27807      194.1956       846.902      
     41800  -86665.672      514.77443     -86150.897      194.26103      194.17808      847.2524     
     41900  -86640.95       514.32929     -86126.621      194.24461      194.16062      847.60279    
     42000  -86609.386      514.58831     -86094.798      194.22827      194.14201      847.95319    
     42100  -86578.368      517.36563     -86061.003      194.21139      194.12434      848.30358    
     42200  -86557.074      521.98401     -86035.09       194.19438      194.1072       848.65397    
     42300  -86535.162      521.9747      -86013.188      194.17587      194.08877      849.00437    
     42400  -86510.787      518.36443     -85992.422      194.15817      194.0729       849.35476    
     42500  -86488.576      520.2573      -85968.319      194.13932      194.05554      849.70516    
     42600  -86455.019      514.31191     -85940.707      194.12133      194.03799      850.05555    
     42700  -86426.813      521.55485     -85905.258      194.10334      194.02136      850.40594    
     42800  -86396.351      522.05137     -85874.3        194.0846       194.00286      850.75634    
     42900  -86375.929      520.7175      -85855.211      194.06696      193.9851       851.10673    
     43000  -86351.695      515.76251     -85835.933      194.0481       193.96772      851.45712    
     43100  -86324.937      511.81015     -85813.127      194.03032      193.94916      851.80752    
     43200  -86301.904      515.85426     -85786.05       194.01274      193.9307       852.15791    
     43300  -86277.464      522.1161      -85755.348      193.99472      193.91271      852.50831    
     43400  -86246.639      520.68507     -85725.954      193.97686      193.89333      852.8587     
     43500  -86228.023      520.73422     -85707.288      193.95895      193.87434      853.20909    
     43600  -86198.553      511.61736     -85686.935      193.94048      193.85676      853.55949    
     43700  -86172.457      511.60005     -85660.857      193.92107      193.83802      853.90988    
     43800  -86147.728      516.12065     -85631.607      193.90248      193.82082      854.26028    
     43900  -86118.429      520.67857     -85597.75       193.88222      193.8031       854.61067    
     44000  -86091.328      522.02449     -85569.304      193.86312      193.78497      854.96106    
     44100  -86068.755      515.11892     -85553.636      193.84438      193.76644      855.31146    
     44200  -86047.585      517.43309     -85530.151      193.82467      193.74703      855.66185    
     44300  -86021.22       516.45254     -85504.767      193.80705      193.72832      856.01224    
     44400  -85994.997      515.46609     -85479.531      193.7878       193.70787      856.36264    
     44500  -85970.163      516.42371     -85453.739      193.76972      193.68879      856.71303    
     44600  -85942.369      517.69396     -85424.675      193.75089      193.66887      857.06343    
     44700  -85916.43       522.79337     -85393.636      193.73199      193.64892      857.41382    
     44800  -85889.95       521.25629     -85368.694      193.71286      193.62963      857.76421    
     44900  -85870.156      519.00812     -85351.148      193.69312      193.61067      858.11461    
     45000  -85837.582      511.32047     -85326.262      193.67295      193.59182      858.465      
     45100  -85816.617      518.6934      -85297.924      193.65293      193.57315      858.8154     
     45200  -85782.54       516.98181     -85265.559      193.63325      193.55505      859.16579    
     45300  -85753.52       521.88798     -85231.632      193.61245      193.53501      859.51618    
     45400  -85731.496      521.05067     -85210.445      193.5943       193.51622      859.86658    
     45500  -85711.214      521.10048     -85190.114      193.57421      193.49584      860.21697    
     45600  -85685.794      520.25019     -85165.544      193.55528      193.47594      860.56737    
     45700  -85653.577      513.82214     -85139.755      193.53756      193.45551      860.91776    
     45800  -85627.278      516.67857     -85110.599      193.51765      193.43479      861.26815    
     45900  -85601.495      524.5225      -85076.972      193.49796      193.41524      861.61855    
     46000  -85571.774      524.44132     -85047.333      193.47872      193.39555      861.96894    
     46100  -85542.993      512.66083     -85030.332      193.45813      193.37552      862.31933    
     46200  -85524.229      517.81783     -85006.412      193.43749      193.35642      862.66973    
     46300  -85498.335      518.88769     -84979.447      193.41779      193.33697      863.02012    
     46400  -85465.892      515.05214     -84950.84       193.39635      193.31653      863.37052    
     46500  -85444.687      523.4184      -84921.269      193.37608      193.29776      863.72091    
     46600  -85413.608      516.24006     -84897.368      193.35618      193.27696      864.0713     
     46700  -85392.768      515.97739     -84876.79       193.33574      193.25594      864.4217     
     46800  -85364.241      512.95822     -84851.283      193.31628      193.23635      864.77209    
     46900  -85336.67       514.31778     -84822.352      193.29648      193.2144       865.12249    
     47000  -85310.012      523.147       -84786.865      193.27678      193.19317      865.47288    
     47100  -85277.876      522.50808     -84755.368      193.25708      193.17316      865.82327    
     47200  -85258.839      523.1109      -84735.728      193.23716      193.15116      866.17367    
     47300  -85235.729      523.22878     -84712.5        193.21693      193.13071      866.52406    
     47400  -85206.502      518.56238     -84687.939      193.19651      193.11076      866.87446    
     47500  -85180.716      516.72909     -84663.987      193.17537      193.08994      867.22485    
     47600  -85154.527      514.1088      -84640.418      193.15437      193.07023      867.57524    
     47700  -85128.878      509.43657     -84619.441      193.13333      193.05113      867.92564    
     47800  -85102.135      506.16697     -84595.968      193.1118       193.0299       868.27603    
     47900  -85072.402      514.20475     -84558.198      193.09145      193.01068      868.62642    
     48000  -85052.742      528.07366     -84524.668      193.07151      192.98955      868.97682    
     48100  -85017.297      518.55483     -84498.743      193.05165      192.96711      869.32721    
     48200  -84993.963      516.31126     -84477.651      193.03221      192.94727      869.67761    
     48300  -84967.36       515.13736     -84452.222      193.01267      192.92532      870.028      
     48400  -84936.856      514.28061     -84422.575      192.99265      192.90376      870.37839    
     48500  -84905.898      519.01313     -84386.885      192.97128      192.88526      870.72879    
     48600  -84874.281      521.60439     -84352.677      192.9511       192.86455      871.07918    
     48700  -84856.637      522.74802     -84333.889      192.92999      192.84371      871.42958    
     48800  -84825.781      515.25966     -84310.522      192.90877      192.82547      871.77997    
     48900  -84803.254      516.47393     -84286.78       192.88853      192.80431      872.13036    
     49000  -84774.463      513.50405     -84260.959      192.86724      192.78376      872.48076    
     49100  -84748.219      516.86647     -84231.353      192.84657      192.76551      872.83115    
     49200  -84715.168      517.25909     -84197.909      192.82595      192.74297      873.18154    
     49300  -84688.676      519.9774      -84168.699      192.80593      192.72285      873.53194    
     49400  -84667.625      518.22818     -84149.397      192.78542      192.70306      873.88233    
     49500  -84639.581      514.90014     -84124.681      192.76541      192.68064      874.23273    
     49600  -84615.23       519.70107     -84095.529      192.74478      192.66124      874.58312    
     49700  -84583.382      517.61182     -84065.771      192.72459      192.64095      874.93351    
     49800  -84562.393      520.32495     -84042.068      192.70464      192.61869      875.28391    
     49900  -84528.794      508.83843     -84019.956      192.68387      192.59936      875.6343     
     50000  -84509.144      517.31764     -83991.827      192.66391      192.57903      875.9847     
     50100  -84470.577      512.6698      -83957.907      192.64261      192.55723      876.33509    
     50200  -84440.545      520.49577     -83920.05       192.62141      192.54036      876.68548    
     50300  -84415.164      522.666       -83892.498      192.59996      192.51911      877.03588    
     50400  -84392.563      522.37756     -83870.185      192.57939      192.49896      877.38627    
     50500  -84363.688      517.12756     -83846.56       192.55765      192.48046      877.73667    
     50600  -84336.957      513.52864     -83823.428      192.53803      192.45852      878.08706    
     50700  -84313.077      516.06277     -83797.014      192.51844      192.43727      878.43745    
     50800  -84286.838      517.94197     -83768.896      192.49766      192.41768      878.78785    
     50900  -84258.895      515.55076     -83743.344      192.47925      192.39465      879.13824    
     51000  -84235.784      515.65555     -83720.128      192.45916      192.37311      879.48863    
     51100  -84204.756      513.5113      -83691.244      192.43818      192.35486      879.83903    
     51200  -84172.674      517.69341     -83654.981      192.41788      192.33223      880.18942    
     51300  -84140.276      521.70016     -83618.576      192.39659      192.31359      880.53982    
     51400  -84114.677      520.7969      -83593.88       192.37395      192.29486      880.89021    
     51500  -84088.064      518.25078     -83569.813      192.35482      192.27327      881.2406     
     51600  -84064.918      519.75479     -83545.164      192.33361      192.25331      881.591      
     51700  -84033.16       512.05108     -83521.109      192.31328      192.23338      881.94139    
     51800  -84005.522      512.80776     -83492.715      192.29441      192.21156      882.29179    
     51900  -83975.892      516.2422      -83459.65       192.27323      192.19162      882.64218    
     52000  -83943.024      521.02087     -83422.003      192.25313      192.17209      882.99257    
     52100  -83919.267      524.75622     -83394.511      192.23309      192.15035      883.34297    
     52200  -83891.598      517.28275     -83374.315      192.2129       192.13107      883.69336    
     52300  -83869.606      520.89335     -83348.712      192.19308      192.11017      884.04376    
     52400  -83839.209      515.79938     -83323.41       192.17396      192.08848      884.39415    
     52500  -83811.717      514.55462     -83297.162      192.15343      192.06835      884.74454    
     52600  -83782.464      513.85645     -83268.607      192.1335       192.04837      885.09494    
     52700  -83757.226      513.77609     -83243.45       192.11291      192.02771      885.44533    
     52800  -83730.565      512.18074     -83218.384      192.09153      192.00889      885.79572    
     52900  -83702.277      516.98593     -83185.291      192.07076      191.98969      886.14612    
     53000  -83666.067      520.5119      -83145.555      192.04965      191.96878      886.49651    
     53100  -83634.134      518.64913     -83115.485      192.02916      191.94968      886.84691    
     53200  -83611.163      521.1962      -83089.966      192.00981      191.92865      887.1973     
     53300  -83582.538      518.40456     -83064.133      191.99027      191.90661      887.54769    
     53400  -83555.917      518.61704     -83037.3        191.97094      191.88635      887.89809    
     53500  -83531.106      520.97888     -83010.127      191.95188      191.8644       888.24848    
     53600  -83497.918      515.08718     -82982.83       191.93216      191.84317      888.59888    
     53700  -83473.245      520.41735     -82952.827      191.91148      191.82345      888.94927    
     53800  -83437.717      514.73446     -82922.983      191.89167      191.80351      889.29966    
     53900  -83414.452      519.46937     -82894.983      191.87029      191.78333      889.65006    
     54000  -83385.592      516.2479      -82869.344      191.84957      191.7643       890.00045    
     54100  -83358.918      518.13484     -82840.783      191.83026      191.74394      890.35084    
     54200  -83328.11       518.15937     -82809.951      191.80943      191.72347      890.70124    
     54300  -83297.019      517.57338     -82779.446      191.78935      191.70408      891.05163    
     54400  -83269.684      518.3362      -82751.348      191.76974      191.68344      891.40203    
     54500  -83244.434      518.50235     -82725.931      191.74903      191.66369      891.75242    
     54600  -83220.005      515.29348     -82704.711      191.72952      191.64356      892.10281    
     54700  -83183.37       512.36315     -82671.007      191.71096      191.62219      892.45321    
     54800  -83153.724      520.07787     -82633.646      191.69091      191.60219      892.8036     
     54900  -83120.938      521.17684     -82599.761      191.67142      191.58157      893.154      
     55000  -83092.891      519.63318     -82573.258      191.65255      191.56094      893.50439    
     55100  -83062.828      514.09466     -82548.733      191.63189      191.54195      893.85478    
     55200  -83036.405      517.62032     -82518.785      191.61215      191.52177      894.20518    
     55300  -83008.068      520.37381     -82487.694      191.59239      191.5018       894.55557    
     55400  -82981.209      520.64876     -82460.561      191.57099      191.48333      894.90597    
     55500  -82951.601      515.07072     -82436.53       191.55142      191.46369      895.25636    
     55600  -82917.32       512.8304      -82404.489      191.53069      191.44366      895.60675    
     55700  -82884.172      514.48808     -82369.684      191.50992      191.42553      895.95715    
     55800  -82856.54       520.55239     -82335.987      191.49097      191.40476      896.30754    
     55900  -82827.002      520.09306     -82306.908      191.47112      191.38429      896.65793    
     56000  -82796.937      515.5657      -82281.372      191.45152      191.36481      897.00833    
     56100  -82763.903      513.13981     -82250.763      191.43302      191.34342      897.35872    
     56200  -82736.195      516.71871     -82219.476      191.41334      191.32317      897.70912    
     56300  -82703.054      513.58043     -82189.474      191.39314      191.30397      898.05951    
     56400  -82676.774      516.72421     -82160.05       191.37409      191.28327      898.4099     
     56500  -82643.077      511.26657     -82131.811      191.3535       191.26401      898.7603     
     56600  -82617.956      513.61003     -82104.346      191.33326      191.24498      899.11069    
     56700  -82583.538      509.89627     -82073.642      191.3135       191.2248       899.46109    
     56800  -82557.256      515.34634     -82041.909      191.29297      191.20555      899.81148    
     56900  -82522.934      518.11254     -82004.821      191.27235      191.18674      900.16187    
     57000  -82489.728      521.465       -81968.263      191.25202      191.16671      900.51227    
     57100  -82458.381      520.0361      -81938.344      191.23167      191.14743      900.86266    
     57200  -82430.82       518.37932     -81912.441      191.212        191.12778      901.21306    
     57300  -82398.312      516.07324     -81882.238      191.19232      191.10646      901.56345    
     57400  -82365.87       515.3123      -81850.558      191.17268      191.08639      901.91384    
     57500  -82333.776      513.77657     -81819.999      191.15337      191.06566      902.26424    
     57600  -82308.145      513.12864     -81795.016      191.13422      191.04491      902.61463    
     57700  -82280.115      515.77939     -81764.336      191.11396      191.02466      902.96502    
     57800  -82242.203      514.92965     -81727.274      191.09436      191.00452      903.31542    
     57900  -82202.406      512.34347     -81690.063      191.07402      190.98431      903.66581    
     58000  -82176.361      520.08947     -81656.272      191.05348      190.96471      904.01621    
     58100  -82148.418      514.10482     -81634.313      191.03313      190.9453       904.3666     
     58200  -82114.781      513.14172     -81601.639      191.01199      190.92542      904.71699    
     58300  -82083.648      519.08933     -81564.558      190.99088      190.90683      905.06739    
     58400  -82048.197      521.08139     -81527.116      190.97084      190.8865       905.41778    
     58500  -82012.393      518.41961     -81493.974      190.95058      190.86611      905.76818    
     58600  -81983.17       515.7796      -81467.39       190.93097      190.84591      906.11857    
     58700  -81952.399      516.79677     -81435.602      190.91181      190.82382      906.46896    
     58800  -81917.339      513.93634     -81403.403      190.89223      190.80322      906.81936    
     58900  -81887.167      514.11333     -81373.054      190.87209      190.78301      907.16975    
     59000  -81856.4        513.50732     -81342.892      190.85222      190.76201      907.52014    
     59100  -81825.667      508.58085     -81317.086      190.83135      190.74209      907.87054    
     59200  -81792.453      510.27322     -81282.18       190.81086      190.7218       908.22093    
     59300  -81755.773      513.92465     -81241.848      190.7907       190.70103      908.57133    
     59400  -81722.261      518.63596     -81203.625      190.76976      190.68044      908.92172    
     59500  -81689.872      522.90281     -81166.969      190.74948      190.66069      909.27211    
     59600  -81653.274      515.71285     -81137.561      190.72805      190.63977      909.62251    
     59700  -81618.582      511.0979      -81107.485      190.70684      190.6198       909.9729     
     59800  -81586.508      514.80181     -81071.706      190.68591      190.59981      910.3233     
     59900  -81553.934      518.56883     -81035.365      190.66515      190.57857      910.67369    
     60000  -81512.82       510.62642     -81002.193      190.64501      190.55719      911.02408    
     60100  -81488.973      514.25836     -80974.715      190.62583      190.53617      911.37448    
     60200  -81456.198      517.92338     -80938.275      190.60499      190.51367      911.72487    
     60300  -81410.667      512.73399     -80897.933      190.58504      190.49209      912.07527    
     60400  -81382.189      524.06278     -80858.126      190.56507      190.47177      912.42566    
     60500  -81343.582      518.99136     -80824.591      190.54352      190.45018      912.77605    
     60600  -81314.219      519.19274     -80795.026      190.52295      190.42926      913.12645    
     60700  -81281.192      519.1714      -80762.02       190.502        190.40985      913.47684    
     60800  -81245.318      517.32779     -80727.99       190.47962      190.38893      913.82723    
     60900  -81209.122      515.05722     -80694.064      190.4588       190.36807      914.17763    
     61000  -81170.458      508.5654      -80661.892      190.4372       190.349        914.52802    
     61100  -81141.763      511.51586     -80630.247      190.41581      190.32743      914.87842    
     61200  -81100.156      511.32206     -80588.834      190.39571      190.30549      915.22881    
     61300  -81060.518      521.05521     -80539.462      190.37504      190.28521      915.5792     
     61400  -81030.748      527.88197     -80502.866      190.35427      190.26261      915.9296     
     61500  -80990.848      519.18022     -80471.667      190.3342       190.24063      916.27999    
     61600  -80956.27       517.4124      -80438.857      190.31293      190.22089      916.63039    
     61700  -80918.737      514.80946     -80403.928      190.29155      190.19836      916.98078    
     61800  -80885.335      516.60249     -80368.732      190.27121      190.17707      917.33117    
     61900  -80854.404      519.65539     -80334.749      190.24948      190.15706      917.68157    
     62000  -80818.233      518.74671     -80299.486      190.22851      190.13443      918.03196    
     62100  -80774.815      514.47731     -80260.337      190.20723      190.11395      918.38236    
     62200  -80739.973      519.51109     -80220.462      190.18481      190.09416      918.73275    
     62300  -80699.785      517.00282     -80182.782      190.16291      190.07239      919.08314    
     62400  -80668.419      519.71145     -80148.708      190.14059      190.05241      919.43354    
     62500  -80629.26       515.93417     -80113.326      190.11935      190.03221      919.78393    
     62600  -80595.569      521.43385     -80074.135      190.09842      190.00894      920.13432    
     62700  -80553.032      514.19475     -80038.837      190.07752      189.98729      920.48472    
     62800  -80520.362      513.85278     -80006.509      190.05731      189.9661       920.83511    
     62900  -80477.479      514.02479     -79963.454      190.03559      189.94295      921.18551    
     63000  -80430.41       512.91837     -79917.492      190.01409      189.92234      921.5359     
     63100  -80393.665      521.49386     -79872.171      189.99251      189.90122      921.88629    
     63200  -80356.955      520.94116     -79836.014      189.97051      189.8786       922.23669    
     63300  -80325.559      521.39359     -79804.165      189.94881      189.85787      922.58708    
     63400  -80285.383      517.44009     -79767.943      189.92744      189.83652      922.93748    
     63500  -80248.274      516.42271     -79731.851      189.90567      189.81447      923.28787    
     63600  -80215.77       522.83119     -79692.938      189.88305      189.79375      923.63826    
     63700  -80171.52       518.34114     -79653.179      189.86106      189.77255      923.98866    
     63800  -80132.588      513.28725     -79619.301      189.83814      189.75149      924.33905    
     63900  -80091.038      511.40563     -79579.632      189.81613      189.72998      924.68945    
     64000  -80049.538      516.92414     -79532.614      189.79574      189.70787      925.03984    
     64100  -80007.286      520.79684     -79486.489      189.77393      189.68488      925.39023    
     64200  -79969.399      518.10094     -79451.298      189.75334      189.66208      925.74063    
     64300  -79938.077      521.77872     -79416.299      189.73283      189.63999      926.09102    
     64400  -79892.284      516.03204     -79376.252      189.70987      189.61809      926.44141    
     64500  -79854.321      518.17948     -79336.142      189.68805      189.59657      926.79181    
     64600  -79809.948      514.89343     -79295.055      189.66642      189.57528      927.1422     
     64700  -79772.949      518.01948     -79254.929      189.64263      189.55354      927.4926     
     64800  -79736.039      517.34291     -79218.696      189.62179      189.53142      927.84299    
     64900  -79689.662      512.97936     -79176.683      189.60006      189.50994      928.19338    
     65000  -79650.295      519.10413     -79131.19       189.57659      189.4877       928.54378    
     65100  -79604.582      519.73374     -79084.849      189.55536      189.46589      928.89417    
     65200  -79567.566      518.19304     -79049.373      189.53298      189.44508      929.24457    
     65300  -79526.575      515.41568     -79011.16       189.50964      189.42225      929.59496    
     65400  -79483.601      516.49327     -78967.107      189.48906      189.40016      929.94535    
     65500  -79440.674      516.15765     -78924.516      189.46742      189.37767      930.29575    
     65600  -79398.381      513.63279     -78884.748      189.44544      189.35394      930.64614    
     65700  -79360.875      516.28239     -78844.593      189.42485      189.3313       930.99653    
     65800  -79317.217      517.02006     -78800.197      189.40292      189.30927      931.34693    
     65900  -79276.035      521.21821     -78754.816      189.38026      189.28688      931.69732    
     66000  -79227.435      516.65492     -78710.78       189.35818      189.26556      932.04772    
     66100  -79180.074      512.45423     -78667.62       189.33567      189.24438      932.39811    
     66200  -79148.276      520.85666     -78627.42       189.31307      189.2221       932.7485     
     66300  -79108.186      522.42212     -78585.764      189.29093      189.20046      933.0989     
     66400  -79057.801      516.07615     -78541.724      189.26883      189.1791       933.44929    
     66500  -79014.248      515.50337     -78498.745      189.2462       189.15665      933.79969    
     66600  -78970.789      515.70508     -78455.084      189.22428      189.13509      934.15008    
     66700  -78925.86       516.2415      -78409.619      189.20286      189.11306      934.50047    
     66800  -78889.058      523.65209     -78365.406      189.18137      189.08984      934.85087    
     66900  -78839.259      517.28973     -78321.969      189.16004      189.06764      935.20126    
     67000  -78796.713      517.44522     -78279.268      189.13847      189.04566      935.55166    
     67100  -78754.975      518.13915     -78236.836      189.11649      189.02301      935.90205    
     67200  -78712.198      518.84817     -78193.35       189.09454      189.0018       936.25244    
     67300  -78667.753      519.55191     -78148.201      189.07241      188.97997      936.60284    
     67400  -78621.663      518.24958     -78103.413      189.05022      188.95801      936.95323    
     67500  -78578.903      521.91574     -78056.987      189.02872      188.93651      937.30362    
     67600  -78531.835      518.8004      -78013.035      189.00644      188.91499      937.65402    
     67700  -78488.934      521.46669     -77967.467      188.98441      188.89321      938.00441    
     67800  -78441.112      518.63632     -77922.476      188.96198      188.87199      938.35481    
     67900  -78397.848      521.19788     -77876.65       188.93967      188.85143      938.7052     
     68000  -78352.24       521.49535     -77830.745      188.91774      188.82922      939.05559    
     68100  -78309.362      523.47081     -77785.891      188.89642      188.80743      939.40599    
     68200  -78264.574      525.07051     -77739.504      188.87534      188.78562      939.75638    
     68300  -78217.634      523.12296     -77694.512      188.85447      188.76258      940.10678    
     68400  -78173.788      524.2759      -77649.512      188.83387      188.74028      940.45717    
     68500  -78124.102      520.62488     -77603.477      188.81174      188.71949      940.80756    
     68600  -78080.435      522.77015     -77557.665      188.7898       188.69777      941.15796    
     68700  -78029.84       518.89612     -77510.944      188.7676       188.67665      941.50835    
     68800  -77986.857      521.30976     -77465.547      188.7454       188.65667      941.85875    
     68900  -77934.551      516.93033     -77417.62       188.72365      188.63461      942.20914    
     69000  -77890.076      521.57788     -77368.498      188.70237      188.613        942.55953    
     69100  -77843.132      522.74752     -77320.384      188.68117      188.59239      942.90993    
     69200  -77792.81       521.21485     -77271.595      188.65979      188.57044      943.26032    
     69300  -77745.483      522.46532     -77223.018      188.63747      188.54903      943.61071    
     69400  -77698.829      524.56555     -77174.264      188.61646      188.5287       943.96111    
     69500  -77657.191      530.25588     -77126.935      188.59542      188.50663      944.3115     
     69600  -77600.831      521.18446     -77079.646      188.57426      188.48524      944.6619     
     69700  -77559.692      527.55236     -77032.14       188.55391      188.46331      945.01229    
     69800  -77508.658      524.69692     -76983.961      188.53343      188.44183      945.36268    
     69900  -77456.558      521.9281      -76934.63       188.51151      188.42052      945.71308    
     70000  -77409.355      522.73284     -76886.622      188.49125      188.39956      946.06347    
     70100  -77361.766      524.22132     -76837.544      188.46924      188.37909      946.41387    
     70200  -77312.316      525.57066     -76786.746      188.44722      188.35828      946.76426    
     70300  -77260.558      524.31159     -76736.246      188.42664      188.33763      947.11465    
     70400  -77209.848      523.82955     -76686.019      188.40493      188.31702      947.46505    
     70500  -77164.09       526.81963     -76637.27       188.38384      188.29537      947.81544    
     70600  -77110.073      523.88023     -76586.193      188.36348      188.27453      948.16583    
     70700  -77060.876      523.42792     -76537.448      188.3424       188.25376      948.51623    
     70800  -77011.203      525.28447     -76485.918      188.32166      188.23172      948.86662    
     70900  -76960.873      526.6845      -76434.189      188.30158      188.21114      949.21702    
     71000  -76907.516      523.52935     -76383.987      188.28093      188.19002      949.56741    
     71100  -76854.392      522.14825     -76332.244      188.26046      188.16836      949.9178     
     71200  -76811.901      528.93793     -76282.963      188.23974      188.14827      950.2682     
     71300  -76761.416      529.03424     -76232.381      188.21885      188.12764      950.61859    
     71400  -76711.233      527.8131      -76183.419      188.19772      188.1073       950.96899    
     71500  -76661.288      531.00365     -76130.284      188.17628      188.08743      951.31938    
     71600  -76608.38       529.82239     -76078.557      188.15646      188.06698      951.66977    
     71700  -76558.212      532.04112     -76026.171      188.1356       188.04593      952.02017    
     71800  -76508.952      534.93161     -75974.02       188.11534      188.02614      952.37056    
     71900  -76450.678      530.09631     -75920.581      188.09524      188.00469      952.72096    
     72000  -76395.122      529.52101     -75865.6        188.07483      187.98481      953.07135    
     72100  -76345.796      533.18254     -75812.613      188.05414      187.96467      953.42174    
     72200  -76290.688      528.94144     -75761.747      188.03441      187.9438       953.77214    
     72300  -76237.443      530.33609     -75707.106      188.01451      187.92358      954.12253    
     72400  -76182.999      530.83491     -75652.164      187.99395      187.90261      954.47292    
     72500  -76134.453      535.78396     -75598.669      187.97512      187.88195      954.82332    
     72600  -76074.252      532.47072     -75541.781      187.95462      187.86242      955.17371    
     72700  -76019.611      531.98623     -75487.624      187.93339      187.84237      955.52411    
     72800  -75967.532      537.31794     -75430.214      187.91373      187.82233      955.8745     
[...]
     81600  -94044.287      517.12643     -93527.16       188.35039      188.08613      986.70916    
     81700  -94094.783      519.67338     -93575.11       188.3677       188.10272      987.05956    
     81800  -94136.461      515.52698     -93620.934      188.38546      188.11897      987.40995    
     81900  -94172.508      512.55588     -93659.952      188.40324      188.13546      987.76034    
     82000  -94202.628      513.91854     -93688.709      188.42166      188.15248      988.11074    
     82100  -94233.676      521.43998     -93712.236      188.44017      188.16921      988.46113    
     82200  -94280.366      533.53516     -93746.83       188.45787      188.18602      988.81152    
     82300  -94323.482      517.21353     -93806.269      188.47496      188.20244      989.16192    
     82400  -94332.344      482.12547     -93850.218      188.49271      188.21974      989.51231    
     82500  -94340.37       503.81715     -93836.553      188.51082      188.23727      989.86271    
     82600  -94349.869      547.07904     -93802.79       188.52916      188.25459      990.2131     
     82700  -94333.878      517.7528      -93816.125      188.54803      188.27247      990.56349    
     82800  -94309.727      479.77043     -93829.957      188.56645      188.29062      990.91389    
     82900  -94285.794      499.84396     -93785.95       188.5863       188.30838      991.26428    
     83000  -94253.664      531.80143     -93721.862      188.60681      188.32715      991.61468    
     83100  -94221.446      531.4055      -93690.041      188.62721      188.34637      991.96507    
     83200  -94181.666      499.28491     -93682.381      188.64819      188.36538      992.31546    
     83300  -94146.558      496.21752     -93650.34       188.66852      188.38421      992.66586    
     83400  -94088.525      499.74582     -93588.779      188.68966      188.40423      993.01625    
     83500  -94026.972      510.2048      -93516.767      188.71207      188.42442      993.36665    
     83600  -93960.222      507.68613     -93452.536      188.73391      188.44519      993.71704    
     83700  -93903.01       511.36445     -93391.645      188.75791      188.46692      994.06743    
     83800  -93844.173      513.03577     -93331.137      188.78442      188.48942      994.41783    
     83900  -93799.732      522.77394     -93276.959      188.81015      188.51148      994.76822    
     84000  -93758.255      518.07628     -93240.179      188.8349       188.53436      995.11861    
     84100  -93714.135      504.80181     -93209.334      188.86386      188.55996      995.46901    
     84200  -93684.219      520.81939     -93163.399      188.89298      188.58502      995.8194     
     84300  -93676.86       545.06759     -93131.792      188.92372      188.61189      996.1698     
     84400  -93690.509      535.14008     -93155.368      188.95828      188.63921      996.52019    
     84500  -93713.819      505.24015     -93208.579      188.99266      188.6665       996.87058    
     84600  -93744.783      502.53494     -93242.248      189.02764      188.69426      997.22098    
     84700  -93773.175      520.56488     -93252.61       189.06651      188.72291      997.57137    
     84800  -93818.975      542.5572      -93276.417      189.109        188.75591      997.92177    
     84900  -93878.633      531.59204     -93347.041      189.1494       188.7911       998.27216    
     85000  -93902.405      488.55766     -93413.847      189.19238      188.82722      998.62255    
     85100  -93942.941      510.94329     -93431.998      189.23829      188.86735      998.97295    
     85200  -93938.838      509.80755     -93429.03       189.28285      188.9093       999.32334    
     85300  -93942.874      525.94132     -93416.933      189.32862      188.95565      999.67373    
     85400  -93933.718      514.21837     -93419.499      189.37745      189.00362      1000.0241    
     85500  -93937.06       514.01922     -93423.041      189.42514      189.05615      1000.3745    
     85600  -93921.514      508.58589     -93412.928      189.4694       189.11472      1000.7249    
     85700  -93893.682      506.15772     -93387.525      189.51         189.17527      1001.0753    
     85800  -93871.887      523.1388      -93348.748      189.55084      189.23466      1001.4257    
     85900  -93853.305      530.82493     -93322.48       189.59531      189.29427      1001.7761    
     86000  -93849.391      526.62624     -93322.765      189.63383      189.35884      1002.1265    
     86100  -93859.297      518.52276     -93340.774      189.66891      189.42713      1002.4769    
     86200  -93873.984      513.73521     -93360.249      189.70568      189.4951       1002.8273    
     86300  -93900.678      520.56195     -93380.116      189.74372      189.55681      1003.1777    
     86400  -93929.24       520.78876     -93408.452      189.78153      189.614        1003.5281    
     86500  -93960.432      518.11268     -93442.32       189.8162       189.6637       1003.8785    
     86600  -93998.408      519.9754      -93478.433      189.85235      189.70459      1004.2289    
     86700  -94016.055      503.20128     -93512.854      189.88714      189.74103      1004.5792    
     86800  -94037.334      511.24303     -93526.091      189.91803      189.77128      1004.9296    
     86900  -94053.142      521.90841     -93531.234      189.94888      189.8019       1005.28      
     87000  -94057.713      513.07007     -93544.643      189.97988      189.82939      1005.6304    
     87100  -94042.882      494.53915     -93548.343      190.01001      189.85355      1005.9808    
     87200  -94035.722      516.72645     -93518.996      190.04104      189.8801       1006.3312    
     87300  -94004.671      520.53299     -93484.138      190.06968      189.9079       1006.6816    
     87400  -93992.464      528.90518     -93463.559      190.09915      189.93438      1007.032     
     87500  -93976.256      512.66061     -93463.595      190.1298       189.96534      1007.3824    
     87600  -93959.283      501.3653      -93457.918      190.15898      190.00074      1007.7328    
     87700  -93955.874      523.23623     -93432.638      190.18886      190.03659      1008.0832    
     87800  -93944.269      529.07112     -93415.197      190.22119      190.07347      1008.4336    
     87900  -93939.324      522.04803     -93417.276      190.25761      190.11289      1008.784     
     88000  -93942.802      516.54887     -93426.253      190.29783      190.15049      1009.1344    
     88100  -93950.032      515.58705     -93434.445      190.33876      190.18707      1009.4848    
     88200  -93954.417      513.9925      -93440.424      190.38027      190.22374      1009.8352    
     88300  -93943.114      504.95524     -93438.159      190.42261      190.25362      1010.1856    
     88400  -93926.533      506.53207     -93420.001      190.46233      190.28033      1010.5359    
     88500  -93912.268      523.13668     -93389.132      190.4981       190.30486      1010.8863    
     88600  -93885.71       519.87305     -93365.836      190.53219      190.32546      1011.2367    
     88700  -93864.514      515.51016     -93349.004      190.56217      190.34042      1011.5871    
     88800  -93871.557      533.37668     -93338.18       190.58717      190.35044      1011.9375    
     88900  -93882.293      525.28862     -93357.004      190.61221      190.35348      1012.2879    
     89000  -93915.986      521.17868     -93394.808      190.63569      190.34839      1012.6383    
     89100  -93955.141      517.00299     -93438.138      190.65524      190.34052      1012.9887    
     89200  -93992.345      516.50757     -93475.837      190.67346      190.32787      1013.3391    
     89300  -94021.436      514.06336     -93507.373      190.69334      190.31187      1013.6895    
     89400  -94034.304      504.09809     -93530.206      190.71181      190.29527      1014.0399    
     89500  -94043.538      508.66903     -93534.869      190.73053      190.28007      1014.3903    
     89600  -94038.27       512.196       -93526.074      190.75259      190.26553      1014.7407    
     89700  -94030.823      519.3888      -93511.434      190.77749      190.25431      1015.0911    
     89800  -94016.896      516.43213     -93500.464      190.802        190.2481       1015.4415    
     89900  -94006.652      516.33756     -93490.315      190.82958      190.24909      1015.7919    
     90000  -93995.984      518.46949     -93477.514      190.86223      190.25507      1016.1422    
     90100  -93988.965      521.5942      -93467.37       190.89554      190.26361      1016.4926    
     90200  -93983.122      519.73154     -93463.39       190.92876      190.27976      1016.843     
     90300  -93975.735      512.83623     -93462.899      190.96185      190.29521      1017.1934    
     90400  -93965.922      510.40185     -93455.52       190.99394      190.30788      1017.5438    
     90500  -93961.57       521.96906     -93439.601      191.02487      190.31954      1017.8942    
     90600  -93953.912      522.55516     -93431.357      191.05658      190.32738      1018.2446    
     90700  -93963.534      524.88719     -93438.647      191.08617      190.33047      1018.595     
     90800  -93972.089      515.4964      -93456.593      191.11484      190.3298       1018.9454    
     90900  -93987.09       512.4477      -93474.642      191.14264      190.32578      1019.2958    
     91000  -94004.874      516.72025     -93488.154      191.16992      190.32091      1019.6462    
     91100  -94015.731      515.38623     -93500.344      191.19967      190.31402      1019.9966    
     91200  -94037.627      524.42771     -93513.2        191.23062      190.30823      1020.347     
     91300  -94042.076      510.13677     -93531.939      191.25936      190.3091       1020.6974    
     91400  -94043.758      504.15822     -93539.6        191.2882       190.31444      1021.0478    
     91500  -94040.92       513.6742      -93527.246      191.31781      190.32257      1021.3982    
     91600  -94030.76       524.29815     -93506.462      191.34433      190.33837      1021.7485    
     91700  -94023.589      526.22201     -93497.367      191.3672       190.36107      1022.0989    
     91800  -94019.632      516.00604     -93503.626      191.39026      190.38518      1022.4493    
     91900  -94014.03       507.46306     -93506.567      191.41408      190.40945      1022.7997    
     92000  -94005.157      511.55478     -93493.603      191.43493      190.43382      1023.1501    
     92100  -93993.253      521.70635     -93471.547      191.45873      190.45593      1023.5005    
     92200  -93988.491      529.16198     -93459.329      191.48732      190.47223      1023.8509    
     92300  -93989.668      520.19875     -93469.469      191.51281      190.48883      1024.2013    
     92400  -93979.467      500.463       -93479.004      191.53787      190.50879      1024.5517    
     92500  -93970.374      508.37594     -93461.999      191.56494      190.52697      1024.9021    
     92600  -93959.698      529.71794     -93429.98       191.59259      190.54715      1025.2525    
     92700  -93946.172      527.20859     -93418.963      191.61873      190.57099      1025.6029    
     92800  -93951.578      516.87341     -93434.704      191.64671      190.59433      1025.9533    
     92900  -93960.113      510.0028      -93450.11       191.67753      190.61768      1026.3037    
     93000  -93961.287      507.18037     -93454.107      191.70836      190.64196      1026.6541    
     93100  -93957.018      513.68576     -93443.332      191.7367       190.66666      1027.0045    
     93200  -93949.828      523.90756     -93425.92       191.76608      190.6928       1027.3549    
     93300  -93943.751      523.33207     -93420.419      191.79802      190.71821      1027.7052    
     93400  -93947.246      518.36094     -93428.885      191.82918      190.74271      1028.0556    
     93500  -93943.354      506.17418     -93437.18       191.86077      190.76614      1028.406     
     93600  -93932.19       505.77952     -93426.41       191.89212      190.78856      1028.7564    
     93700  -93919.332      521.07319     -93398.259      191.92433      190.81227      1029.1068    
     93800  -93909.222      530.59719     -93378.624      191.95666      190.83053      1029.4572    
     93900  -93906.283      527.98761     -93378.295      191.99149      190.84475      1029.8076    
     94000  -93918.579      520.73485     -93397.844      192.02712      190.85708      1030.158     
     94100  -93933.649      510.77887     -93422.87       192.06372      190.86381      1030.5084    
     94200  -93934.697      502.62612     -93432.071      192.10342      190.86408      1030.8588    
     94300  -93935.804      520.73971     -93415.064      192.14028      190.8628       1031.2092    
     94400  -93938.894      535.52606     -93403.368      192.17698      190.85737      1031.5596    
     94500  -93946.025      523.18422     -93422.841      192.21673      190.84946      1031.91      
     94600  -93970.944      516.08868     -93454.855      192.25562      190.84321      1032.2604    
     94700  -93981.391      503.40152     -93477.99       192.29384      190.84061      1032.6108    
     94800  -93988.773      511.47168     -93477.301      192.33366      190.84028      1032.9612    
     94900  -93995.02       528.12823     -93466.892      192.37031      190.84629      1033.3115    
     95000  -93998.167      522.80087     -93475.366      192.40358      190.86127      1033.6619    
     95100  -94003.461      509.42202     -93494.039      192.43733      190.8819       1034.0123    
     95200  -93997.892      501.37207     -93496.52       192.47261      190.90519      1034.3627    
     95300  -93986.678      511.24112     -93475.437      192.50549      190.93226      1034.7131    
     95400  -93971.357      523.78123     -93447.576      192.54141      190.95961      1035.0635    
     95500  -93967.437      533.48752     -93433.949      192.58049      190.9876       1035.4139    
     95600  -93972.756      523.66172     -93449.094      192.61955      191.01939      1035.7643    
     95700  -93988.331      509.15025     -93479.18       192.65719      191.05623      1036.1147    
     95800  -93999.55       503.21304     -93496.337      192.69555      191.09307      1036.4651    
     95900  -94002.313      511.50257     -93490.81       192.73565      191.12905      1036.8155    
     96000  -94004.255      526.45407     -93477.801      192.77395      191.17029      1037.1659    
     96100  -94007.257      525.19551     -93482.061      192.81106      191.21345      1037.5163    
     96200  -94003.179      506.12424     -93497.055      192.84717      191.25642      1037.8667    
     96300  -93995.341      501.86985     -93493.471      192.88393      191.29933      1038.2171    
     96400  -93991.504      524.61255     -93466.892      192.92039      191.33931      1038.5675    
     96500  -93979.775      529.22508     -93450.55       192.95784      191.37562      1038.9178    
     96600  -93977.951      519.19372     -93458.758      192.99544      191.40813      1039.2682    
     96700  -93982.306      509.04706     -93473.259      193.03155      191.4384       1039.6186    
     96800  -93977.352      502.75808     -93474.594      193.06722      191.46568      1039.969     
     96900  -93962.327      511.02023     -93451.307      193.10293      191.49034      1040.3194    
     97000  -93950.541      529.23108     -93421.31       193.14111      191.50882      1040.6698    
     97100  -93949.473      535.45604     -93414.016      193.18118      191.52428      1041.0202    
     97200  -93951.979      518.87798     -93433.101      193.21975      191.53902      1041.3706    
     97300  -93957.84       504.99219     -93452.848      193.25823      191.5515       1041.721     
     97400  -93960          508.4136      -93451.586      193.30044      191.56169      1042.0714    
     97500  -93964.047      527.03845     -93437.008      193.3417       191.57098      1042.4218    
     97600  -93966.631      531.23241     -93435.399      193.37873      191.58351      1042.7722    
     97700  -93987.007      523.85108     -93463.156      193.4155       191.59845      1043.1226    
     97800  -94003.714      501.88731     -93501.827      193.45189      191.61304      1043.473     
     97900  -94022.726      505.63669     -93517.089      193.48511      191.63348      1043.8234    
     98000  -94024.389      513.23952     -93511.149      193.51902      191.65697      1044.1738    
     98100  -94024.158      522.0661      -93502.092      193.55054      191.68325      1044.5242    
     98200  -94013.041      514.64747     -93498.394      193.57961      191.71493      1044.8745    
     98300  -93995.034      506.81193     -93488.222      193.60836      191.74933      1045.2249    
     98400  -93978.317      515.82852     -93462.488      193.6372       191.78177      1045.5753    
     98500  -93949.87       519.81806     -93430.052      193.66256      191.81426      1045.9257    
     98600  -93935.5        528.25899     -93407.241      193.68732      191.84423      1046.2761    
     98700  -93919.501      518.10707     -93401.394      193.71707      191.8646       1046.6265    
     98800  -93920.895      515.22559     -93405.669      193.74801      191.87864      1046.9769    
     98900  -93921.865      512.42578     -93409.44       193.77725      191.89023      1047.3273    
     99000  -93931.956      519.808       -93412.148      193.80958      191.89437      1047.6777    
     99100  -93947.632      523.21246     -93424.419      193.84513      191.89194      1048.0281    
     99200  -93966.386      516.60133     -93449.784      193.87693      191.89107      1048.3785    
     99300  -93987.359      512.36959     -93474.989      193.90585      191.89065      1048.7289    
     99400  -94002.912      511.08277     -93491.829      193.9337       191.88938      1049.0793    
     99500  -94019.601      519.97031     -93499.63       193.95818      191.89307      1049.4297    
     99600  -94029.975      519.99094     -93509.984      193.9781       191.90127      1049.7801    
     99700  -94038.745      515.04854     -93523.696      193.99926      191.90971      1050.1305    
     99800  -94042.181      508.53322     -93533.647      194.01829      191.92183      1050.4808    
     99900  -94036.295      506.09305     -93530.202      194.03242      191.94096      1050.8312    
    100000  -94023.355      514.00121     -93509.354      194.04897      191.95919      1051.1816    
Loop time of 35308 on 16 procs for 100000 steps with 13328 atoms

Performance: 0.245 ns/day, 98.078 hours/ns, 2.832 timesteps/s, 37.748 katom-step/s
46.9% CPU use with 16 MPI tasks x 1 OpenMP threads

MPI task timing breakdown:
Section |  min time  |  avg time  |  max time  |%varavg| %total
---------------------------------------------------------------
Pair    | 1857.6     | 2329.2     | 2890.1     | 632.5 |  6.60
Neigh   | 12.915     | 23.594     | 38.736     | 165.6 |  0.07
Comm    | 4694.9     | 5522.9     | 6108.7     | 491.9 | 15.64
Output  | 108.59     | 112.06     | 116.85     |  22.4 |  0.32
Modify  | 23759      | 24171      | 24581      | 162.2 | 68.46
Other   |            | 3150       |            |       |  8.92

Nlocal:            833 ave        1769 max           0 min
Histogram: 4 1 1 0 1 3 2 0 1 3
Nghost:           2522 ave        4742 max         391 min
Histogram: 3 3 1 1 0 0 0 2 5 1
Neighs:              0 ave           0 max           0 min
Histogram: 16 0 0 0 0 0 0 0 0 0

Total # of neighbors = 0
Ave neighs/atom = 0
Neighbor list builds = 1140
Dangerous builds = 0
Total wall time: 9:48:30
