LAMMPS (2 Aug 2023 - Update 3)
OMP_NUM_THREADS environment is not set. Defaulting to 1 thread. (src/comm.cpp:98)
  using 1 OpenMP thread(s) per MPI task
Reading data file ...
  orthogonal box = (-100 -100 -2.3312515) to (100 100 46.166171)
  3 by 4 by 1 MPI processor grid
  reading atoms ...
  1320 atoms
  read_data CPU = 0.908 seconds
360 atoms in group sr
Deleted 360 atoms, new total = 960
Replication is creating a 1x1x1 = 1 times larger system...
  orthogonal box = (-100 -100 -2.3312515) to (100 100 46.166171)
  3 by 4 by 1 MPI processor grid
  960 atoms
  replicate CPU = 0.804 seconds
System init for write_data ...
WARNING: Communication cutoff is 0.0. No ghost atoms will be generated. Atoms may get lost. (src/comm_brick.cpp:210)
Reading airebo potential file CH.airebo with DATE: 2011-10-25
Reading airebo potential file CH.airebo with DATE: 2011-10-25
Reading airebo potential file CH.airebo with DATE: 2011-10-25
Neighbor list info ...
  update: every = 1 steps, delay = 0 steps, check = yes
  max neighbors/atom: 2000, page size: 100000
  master list distance cutoff = 13.2
  ghost atom cutoff = 13.2
  binsize = 6.6, bins = 31 31 8
  6 neighbor lists, perpetual/occasional/extra = 6 0 0
  (1) pair airebo, perpetual, skip from (5)
      attributes: full, newton on, ghost
      pair build: skip/ghost
      stencil: none
      bin: none
  (2) pair airebo, perpetual, skip from (5)
      attributes: full, newton on, ghost
      pair build: skip/ghost
      stencil: none
      bin: none
  (3) pair airebo, perpetual, skip from (5)
      attributes: full, newton on, ghost
      pair build: skip/ghost
      stencil: none
      bin: none
  (4) pair lj/cut, perpetual, skip from (6)
      attributes: half, newton on, cut 13
      pair build: skip
      stencil: none
      bin: none
  (5) neighbor class addition, perpetual
      attributes: full, newton on, ghost
      pair build: full/bin/ghost
      stencil: full/ghost/bin/3d
      bin: standard
  (6) neighbor class addition, perpetual
      attributes: half, newton on, cut 13
      pair build: half/bin/atomonly/newton
      stencil: half/bin/3d
      bin: standard
Setting up sd style minimization ...
  Unit style    : metal
  Current step  : 0
Per MPI rank memory allocation (min/avg/max) = 9.699 | 9.861 | 10.67 Mbytes
   Step          Temp          E_pair         E_mol          TotEng         Press     
         0   0             -7111.3761      0             -7111.3761     -25.745857    
         1   0             -7111.3938      0             -7111.3938     -25.739335    
Loop time of 1.11766 on 12 procs for 1 steps with 960 atoms

37.5% CPU use with 12 MPI tasks x 1 OpenMP threads

Minimization stats:
  Stopping criterion = energy tolerance
  Energy initial, next-to-last, final = 
     -7111.37612803108  -7111.37612803108  -7111.39375162213
  Force two-norm initial, final = 2.1659545 0.21821563
  Force max component initial, final = 0.069876905 0.0070494245
  Final line search alpha, max atom move = 1 0.0070494245
  Iterations, force evaluations = 1 2

MPI task timing breakdown:
Section |  min time  |  avg time  |  max time  |%varavg| %total
---------------------------------------------------------------
Pair    | 1.0312e-05 | 0.0029678  | 0.01823    |  12.1 |  0.27
Neigh   | 0          | 0          | 0          |   0.0 |  0.00
Comm    | 3.657e-06  | 0.013452   | 0.098186   |  26.6 |  1.20
Output  | 0          | 0          | 0          |   0.0 |  0.00
Modify  | 0          | 0          | 0          |   0.0 |  0.00
Other   |            | 1.101      |            |       | 98.53

Nlocal:             80 ave         500 max           0 min
Histogram: 10 0 0 0 0 0 0 0 0 2
Nghost:            164 ave        1004 max           0 min
Histogram: 10 0 0 0 0 0 0 0 0 2
Neighs:              0 ave           0 max           0 min
Histogram: 12 0 0 0 0 0 0 0 0 0

Total # of neighbors = 0
Ave neighs/atom = 0
Neighbor list builds = 0
Dangerous builds = 0
Setting up Verlet run ...
  Unit style    : metal
  Current step  : 1
  Time step     : 0.001
Per MPI rank memory allocation (min/avg/max) = 10.32 | 10.49 | 11.29 Mbytes
   Step          Temp          E_pair         E_mol          TotEng         Press          Volume    
         1   300           -7111.3938      0             -7074.2056     -5.2633434      1939896.9    
Loop time of 0.0943275 on 12 procs for 0 steps with 960 atoms

31.4% CPU use with 12 MPI tasks x 1 OpenMP threads

MPI task timing breakdown:
Section |  min time  |  avg time  |  max time  |%varavg| %total
---------------------------------------------------------------
Pair    | 0          | 0          | 0          |   0.0 |  0.00
Neigh   | 0          | 0          | 0          |   0.0 |  0.00
Comm    | 0          | 0          | 0          |   0.0 |  0.00
Output  | 0          | 0          | 0          |   0.0 |  0.00
Modify  | 0          | 0          | 0          |   0.0 |  0.00
Other   |            | 0.09433    |            |       |100.00

Nlocal:             80 ave         480 max           0 min
Histogram: 10 0 0 0 0 0 0 0 0 2
Nghost:            164 ave         984 max           0 min
Histogram: 10 0 0 0 0 0 0 0 0 2
Neighs:              0 ave           0 max           0 min
Histogram: 12 0 0 0 0 0 0 0 0 0

Total # of neighbors = 0
Ave neighs/atom = 0
Neighbor list builds = 0
Dangerous builds = 0
WARNING: Dump 2 includes no atom IDs and is not sorted by ID. This may complicate post-processing tasks or visualization (src/dump.cpp:221)
Setting up Verlet run ...
  Unit style    : metal
  Current step  : 0
  Time step     : 0.001
Per MPI rank memory allocation (min/avg/max) = 11.82 | 11.99 | 12.79 Mbytes
   Step         PotEng         KinEng         TotEng           Lx             Ly             Lz      
         0  -7111.3938      37.188144     -7074.2056      200            200            48.497423    
       100  -7088.8504      18.565856     -7070.2845      199.99448      199.9971       48.521672    
       200  -7089.7252      25.360998     -7064.3642      199.98695      199.99239      48.54592     
       300  -7083.447       26.239425     -7057.2076      199.98746      199.9958       48.570169    
       400  -7080.2121      30.642067     -7049.57        199.97654      199.98812      48.594418    
       500  -7076.0463      33.883457     -7042.1629      199.97648      199.99102      48.618667    
       600  -7074.2921      38.00537      -7036.2867      199.96979      199.98849      48.642915    
       700  -7073.024       39.631694     -7033.3923      199.95985      199.98334      48.667164    
       800  -7072.8083      38.403485     -7034.4048      199.95529      199.98409      48.691413    
       900  -7074.7523      37.288786     -7037.4635      199.94429      199.9812       48.715661    
      1000  -7075.6823      35.945801     -7039.7365      199.93826      199.98466      48.73991     
      1100  -7074.9816      35.643805     -7039.3378      199.92522      199.98341      48.764159    
      1200  -7075.1365      38.411197     -7036.7253      199.91517      199.98656      48.788408    
      1300  -7072.2878      37.923756     -7034.3641      199.90376      199.98965      48.812656    
      1400  -7072.7075      38.82894      -7033.8786      199.8864       199.9902       48.836905    
      1500  -7071.6411      35.947946     -7035.6931      199.87744      199.99957      48.861154    
      1600  -7073.967       36.273235     -7037.6938      199.85726      199.99936      48.885402    
      1700  -7072.9536      34.981326     -7037.9723      199.84246      200.00548      48.909651    
      1800  -7073.0231      36.976637     -7036.0465      199.82699      200.01228      48.9339      
      1900  -7071.368       37.577055     -7033.7909      199.80746      200.0145       48.958149    
      2000  -7071.3425      38.273198     -7033.0693      199.79405      200.02342      48.982397    
      2100  -7072.239       38.264674     -7033.9743      199.77328      200.02496      49.006646    
      2200  -7071.5091      35.968852     -7035.5402      199.75561      200.03064      49.030895    
      2300  -7071.671       35.836644     -7035.8343      199.73772      200.03534      49.055143    
      2400  -7071.6969      37.187234     -7034.5096      199.72071      200.04056      49.079392    
      2500  -7070.8183      38.106134     -7032.7122      199.70225      200.04446      49.103641    
      2600  -7069.7999      38.250808     -7031.5491      199.68199      200.04521      49.127889    
      2700  -7069.1291      37.333968     -7031.7951      199.66814      200.05191      49.152138    
      2800  -7068.409       35.364997     -7033.044       199.64652      200.04945      49.176387    
      2900  -7069.2791      35.725216     -7033.5538      199.63201      200.05352      49.200636    
      3000  -7068.8145      36.151081     -7032.6634      199.61696      200.05581      49.224884    
      3100  -7069.1134      38.220335     -7030.8931      199.59744      200.05193      49.249133    
      3200  -7066.3614      36.904128     -7029.4573      199.58577      200.05408      49.273382    
      3300  -7067.4457      38.091815     -7029.3539      199.56943      200.0498       49.29763     
      3400  -7068.0109      37.144226     -7030.8667      199.55522      200.0466       49.321879    
      3500  -7067.903       36.807295     -7031.0957      199.53997      200.04053      49.346128    
      3600  -7067.1969      37.632422     -7029.5645      199.52844      200.03904      49.370377    
      3700  -7064.5367      37.766916     -7026.7698      199.51504      200.03427      49.394625    
      3800  -7063.5226      38.235362     -7025.2872      199.49876      200.02578      49.418874    
      3900  -7064.5767      38.668643     -7025.908       199.48895      200.02416      49.443123    
      4000  -7064.8923      38.166875     -7026.7254      199.46909      200.01284      49.467371    
      4100  -7065.2567      37.71201      -7027.5447      199.45743      200.00913      49.49162     
      4200  -7064.1491      36.563601     -7027.5855      199.44247      200.00315      49.515869    
      4300  -7063.3369      36.663997     -7026.6729      199.42696      199.99641      49.540118    
      4400  -7062.2439      38.390728     -7023.8532      199.41305      199.99223      49.564366    
      4500  -7061.7551      39.023712     -7022.7314      199.39367      199.98413      49.588615    
      4600  -7059.871       36.033575     -7023.8375      199.37821      199.97957      49.612864    
      4700  -7061.1537      36.590794     -7024.5629      199.36016      199.9736       49.637112    
      4800  -7061.4405      37.501022     -7023.9395      199.34094      199.9675       49.661361    
      4900  -7060.39        37.605631     -7022.7844      199.32301      199.96449      49.68561     
      5000  -7059.4         38.477719     -7020.9223      199.30072      199.95901      49.709859    
      5100  -7058.2519      39.458999     -7018.7929      199.28169      199.9582       49.734107    
      5200  -7056.5817      38.501009     -7018.0807      199.25419      199.95181      49.758356    
      5300  -7058.78        38.576873     -7020.2032      199.2309       199.95052      49.782605    
      5400  -7058.6049      37.892409     -7020.7125      199.20806      199.94979      49.806853    
      5500  -7055.8575      35.893336     -7019.9642      199.17834      199.94406      49.831102    
      5600  -7055.1215      37.286115     -7017.8354      199.157        199.94713      49.855351    
      5700  -7055.1106      39.646262     -7015.4644      199.12708      199.94174      49.8796      
      5800  -7053.4573      37.856822     -7015.6005      199.09859      199.93934      49.903848    
      5900  -7055.532       37.607271     -7017.9247      199.07133      199.93754      49.928097    
      6000  -7053.9304      36.69231      -7017.2381      199.04354      199.93439      49.952346    
      6100  -7051.3887      36.1908       -7015.1979      199.01412      199.93178      49.976594    
      6200  -7050.4348      37.445767     -7012.9891      198.98427      199.92928      50.000843    
      6300  -7050.8473      38.37305      -7012.4743      198.95673      199.92808      50.025092    
      6400  -7050.3597      36.813815     -7013.5459      198.92559      199.92294      50.049341    
      6500  -7050.1624      36.210948     -7013.9514      198.89384      199.91568      50.073589    
      6600  -7049.3876      36.540763     -7012.8468      198.86816      199.91324      50.097838    
      6700  -7048.583       37.61759      -7010.9654      198.83561      199.90345      50.122087    
      6800  -7046.1358      37.127358     -7009.0084      198.80968      199.89962      50.146335    
      6900  -7045.6052      37.556184     -7008.049       198.77796      199.89035      50.170584    
      7000  -7046.0738      37.058174     -7009.0157      198.74754      199.88052      50.194833    
      7100  -7045.9517      36.109096     -7009.8426      198.71999      199.87364      50.219082    
      7200  -7043.7789      35.253578     -7008.5253      198.68594      199.8593       50.24333     
      7300  -7044.0558      37.868261     -7006.1875      198.65916      199.85276      50.267579    
      7400  -7041.599       36.653666     -7004.9453      198.62829      199.84083      50.291828    
      7500  -7042.4826      38.165491     -7004.3171      198.59474      199.826        50.316076    
      7600  -7041.2775      37.384998     -7003.8925      198.56875      199.81797      50.340325    
      7700  -7040.937       36.616726     -7004.3203      198.53171      199.79961      50.364574    
      7800  -7040.536       35.639646     -7004.8964      198.50157      199.78819      50.388822    
      7900  -7039.1794      36.781809     -7002.3976      198.4664       199.77284      50.413071    
      8000  -7037.9969      38.156925     -6999.84        198.43442      199.76162      50.43732     
      8100  -7035.6356      36.781109     -6998.8545      198.40044      199.7486       50.461569    
      8200  -7035.8683      37.559375     -6998.3089      198.36034      199.72979      50.485817    
      8300  -7035.4953      36.992048     -6998.5032      198.3292       199.71965      50.510066    
      8400  -7035.2805      36.091771     -6999.1888      198.28886      199.70063      50.534315    
      8500  -7034.2109      36.515281     -6997.6956      198.25117      199.68477      50.558563    
      8600  -7031.306       37.124412     -6994.1816      198.21511      199.67231      50.582812    
      8700  -7030.6409      37.805269     -6992.8356      198.17097      199.65207      50.607061    
      8800  -7029.7589      37.028108     -6992.7308      198.13561      199.64311      50.63131     
      8900  -7029.6992      36.510962     -6993.1882      198.08482      199.62129      50.655558    
      9000  -7030.0425      36.655843     -6993.3867      198.04188      199.60838      50.679807    
      9100  -7027.0863      35.570545     -6991.5157      197.99695      199.59567      50.704056    
      9200  -7024.8667      36.800373     -6988.0663      197.9441       199.57529      50.728304    
      9300  -7025.7298      39.33079      -6986.399       197.90223      199.56631      50.752553    
      9400  -7024.2497      37.869364     -6986.3804      197.84865      199.54771      50.776802    
      9500  -7024.5322      37.144888     -6987.3873      197.79584      199.53181      50.801051    
      9600  -7021.7059      35.201492     -6986.5044      197.74423      199.51859      50.825299    
      9700  -7021.0472      36.519012     -6984.5282      197.68576      199.50058      50.849548    
      9800  -7019.6086      36.748578     -6982.86        197.63268      199.48913      50.873797    
      9900  -7018.6607      37.316169     -6981.3445      197.57061      199.47019      50.898045    
     10000  -7016.5993      36.400384     -6980.1989      197.51546      199.45866      50.922294    
     10100  -7018.0045      36.980806     -6981.0237      197.45396      199.44063      50.946543    
     10200  -7016.3375      34.896002     -6981.4415      197.38933      199.42013      50.970792    
     10300  -7015.5564      36.630812     -6978.9256      197.33023      199.40645      50.99504     
     10400  -7013.462       37.348659     -6976.1133      197.26216      199.38414      51.019289    
     10500  -7012.6276      37.907721     -6974.7199      197.2009       199.37004      51.043538    
     10600  -7011.7302      37.940402     -6973.7898      197.13124      199.34706      51.067786    
     10700  -7010.2413      36.14108      -6974.1002      197.06377      199.32697      51.092035    
     10800  -7010.5507      35.669461     -6974.8812      196.99903      199.30968      51.116284    
     10900  -7009.2775      36.45496      -6972.8225      196.92233      199.2795       51.140533    
     11000  -7006.8208      37.106397     -6969.7144      196.85825      199.26133      51.164781    
     11100  -7004.6651      36.643346     -6968.0217      196.78561      199.23509      51.18903     
     11200  -7003.8905      37.045903     -6966.8446      196.71274      199.20613      51.213279    
     11300  -7003.0592      36.707567     -6966.3516      196.64562      199.18273      51.237527    
     11400  -7002.2916      35.896827     -6966.3948      196.56807      199.14669      51.261776    
     11500  -7001.6111      35.514375     -6966.0967      196.49993      199.1202       51.286025    
     11600  -7000.0369      36.559793     -6963.4771      196.42265      199.08413      51.310274    
     11700  -6999.2354      39.071285     -6960.1641      196.34803      199.05137      51.334522    
     11800  -6996.3412      37.57456      -6958.7666      196.27524      199.02035      51.358771    
     11900  -6995.6776      37.01476      -6958.6628      196.19333      198.97902      51.38302     
     12000  -6994.7459      35.519849     -6959.226       196.12041      198.94697      51.407268    
     12100  -6995.7708      37.075272     -6958.6956      196.03762      198.90544      51.431517    
     12200  -6992.552       37.707463     -6954.8446      195.95787      198.8673       51.455766    
     12300  -6989.5622      37.645439     -6951.9167      195.87679      198.82917      51.480015    
     12400  -6988.3136      37.281794     -6951.0318      195.78686      198.78526      51.504263    
     12500  -6988.2744      36.601091     -6951.6733      195.70719      198.75243      51.528512    
     12600  -6988.3597      37.21048      -6951.1492      195.61114      198.70611      51.552761    
     12700  -6986.2327      36.961367     -6949.2714      195.52249      198.66913      51.577009    
     12800  -6984.0053      38.800987     -6945.2043      195.43013      198.63135      51.601258    
     12900  -6982.6894      39.218623     -6943.4708      195.32799      198.58593      51.625507    
     13000  -6981.5014      37.994537     -6943.5069      195.23409      198.55194      51.649755    
     13100  -6979.5414      36.285952     -6943.2555      195.12831      198.50916      51.674004    
     13200  -6980.5706      38.086756     -6942.4839      195.02695      198.47322      51.698253    
     13300  -6978.6577      37.543278     -6941.1144      194.91995      198.43452      51.722502    
     13400  -6975.5668      38.167595     -6937.3992      194.80641      198.39339      51.74675     
     13500  -6972.4199      37.395581     -6935.0243      194.702        198.36294      51.770999    
     13600  -6972.7545      37.348195     -6935.4063      194.57949      198.31797      51.795248    
     13700  -6971.9103      36.481996     -6935.4283      194.46614      198.28228      51.819496    
     13800  -6972.3429      38.222173     -6934.1208      194.34888      198.24497      51.843745    
     13900  -6969.1661      36.937242     -6932.2289      194.22749      198.20381      51.867994    
     14000  -6966.8341      37.967539     -6928.8666      194.10891      198.16658      51.892243    
     14100  -6966.0183      39.998475     -6926.0198      193.98207      198.12165      51.916491    
     14200  -6965.2327      38.897512     -6926.3351      193.86181      198.08503      51.94074     
     14300  -6963.1168      36.846104     -6926.2706      193.73423      198.04115      51.964989    
     14400  -6961.3661      36.087041     -6925.2791      193.6058       197.99537      51.989237    
     14500  -6960.8046      37.009403     -6923.7952      193.48488      197.95655      52.013486    
     14600  -6958.9943      37.704948     -6921.2894      193.35368      197.90408      52.037735    
     14700  -6956.8919      38.656412     -6918.2354      193.23065      197.86024      52.061984    
     14800  -6955.3496      38.520124     -6916.8295      193.1018       197.80698      52.086232    
     14900  -6954.6209      36.654783     -6917.9661      192.97391      197.75344      52.110481    
     15000  -6953.8186      36.405329     -6917.4132      192.85267      197.70533      52.13473     
     15100  -6950.943       35.720142     -6915.2228      192.72036      197.64271      52.158978    
     15200  -6949.8483      37.783173     -6912.0651      192.59999      197.59188      52.183227    
     15300  -6947.8431      37.9215       -6909.9216      192.47258      197.53192      52.207476    
     15400  -6946.7536      36.914128     -6909.8395      192.34392      197.46946      52.231725    
     15500  -6947.1815      36.059735     -6911.1217      192.22127      197.41196      52.255973    
     15600  -6945.8338      37.26196      -6908.5718      192.0897       197.34528      52.280222    
     15700  -6941.3419      36.276937     -6905.0649      191.96826      197.28917      52.304471    
     15800  -6939.4817      36.976235     -6902.5055      191.83698      197.22405      52.328719    
     15900  -6939.1974      37.798508     -6901.3989      191.70744      197.16058      52.352968    
     16000  -6939.3002      37.342759     -6901.9574      191.58132      197.10227      52.377217    
     16100  -6938.2682      36.809214     -6901.459       191.44452      197.03473      52.401466    
     16200  -6934.6948      35.674528     -6899.0203      191.31657      196.97628      52.425714    
     16300  -6933.0273      36.546885     -6896.4804      191.18138      196.91372      52.449963    
     16400  -6932.7697      38.764957     -6894.0047      191.04683      196.85305      52.474212    
     16500  -6929.7682      38.064852     -6891.7033      190.91279      196.79574      52.49846     
     16600  -6927.4809      37.943593     -6889.5373      190.77124      196.73327      52.522709    
     16700  -6925.637       37.528915     -6888.1081      190.63632      196.68047      52.546958    
     16800  -6925.0814      36.794311     -6888.2871      190.49208      196.61926      52.571207    
     16900  -6924.04        36.457383     -6887.5827      190.35042      196.5649       52.595455    
     17000  -6922.5473      37.523562     -6885.0237      190.21123      196.5129       52.619704    
     17100  -6918.4484      37.528787     -6880.9196      190.06339      196.45427      52.643953    
     17200  -6916.8989      37.651274     -6879.2477      189.92642      196.40697      52.668201    
     17300  -6915.5064      36.915798     -6878.5906      189.77669      196.34921      52.69245     
     17400  -6914.9444      36.864922     -6878.0795      189.63363      196.29882      52.716699    
     17500  -6913.6144      36.966025     -6876.6484      189.48987      196.24893      52.740948    
     17600  -6909.3638      35.104496     -6874.2593      189.34034      196.19206      52.765196    
     17700  -6907.2982      38.193897     -6869.1043      189.20373      196.14849      52.789445    
     17800  -6906.0014      38.649758     -6867.3517      189.05501      196.0899       52.813694    
     17900  -6905.7416      37.805827     -6867.9357      188.91377      196.03754      52.837942    
     18000  -6903.7951      36.204889     -6867.5902      188.77481      195.98721      52.862191    
     18100  -6902.2316      35.877073     -6866.3545      188.62917      195.92798      52.88644     
     18200  -6899.1336      35.074049     -6864.0595      188.49523      195.87789      52.910688    
     18300  -6897.3649      37.328004     -6860.0369      188.35517      195.8189       52.934937    
     18400  -6897.3099      39.672585     -6857.6374      188.22089      195.76275      52.959186    
     18500  -6895.0867      37.632612     -6857.4541      188.09035      195.70766      52.983435    
     18600  -6894.347       37.554388     -6856.7926      187.95488      195.64464      53.007683    
     18700  -6892.0598      36.973034     -6855.0867      187.82832      195.58931      53.031932    
     18800  -6890.0626      37.080575     -6852.982       187.69946      195.52704      53.056181    
     18900  -6889.0729      38.581251     -6850.4916      187.57249      195.46434      53.080429    
     19000  -6885.2296      37.944807     -6847.2848      187.45212      195.40543      53.104678    
     19100  -6883.3938      38.194377     -6845.1994      187.32622      195.33883      53.128927    
     19200  -6883.8583      37.889419     -6845.9689      187.20836      195.28015      53.153176    
     19300  -6881.3039      36.281519     -6845.0224      187.08661      195.21551      53.177424    
     19400  -6881.282       38.507127     -6842.7749      186.96737      195.15241      53.201673    
     19500  -6876.7901      37.22172      -6839.5684      186.85224      195.09269      53.225922    
     19600  -6873.2291      37.6919       -6835.5372      186.73202      195.02701      53.25017     
     19700  -6871.4193      37.172774     -6834.2465      186.61899      194.96951      53.274419    
     19800  -6871.0957      37.481197     -6833.6145      186.50013      194.90776      53.298668    
     19900  -6870.8972      38.359053     -6832.5381      186.38508      194.85028      53.322917    
     20000  -6868.0002      36.285564     -6831.7147      186.26927      194.79336      53.347165    
     20100  -6866.5987      36.32313      -6830.2756      186.15078      194.73358      53.371414    
     20200  -6864.7084      37.435032     -6827.2734      186.03889      194.68233      53.395663    
     20300  -6862.2612      38.979621     -6823.2816      185.91966      194.62598      53.419911    
     20400  -6859.2865      37.729125     -6821.5574      185.80456      194.57602      53.44416     
     20500  -6859.328       37.87666      -6821.4513      185.68778      194.52704      53.468409    
     20600  -6857.6612      36.919453     -6820.7418      185.5692       194.47639      53.492658    
     20700  -6853.8004      35.213755     -6818.5866      185.45567      194.43284      53.516906    
     20800  -6852.8504      37.090867     -6815.7596      185.33463      194.38328      53.541155    
     20900  -6849.8001      37.03056      -6812.7696      185.22008      194.34216      53.565404    
     21000  -6847.9903      37.730841     -6810.2594      185.10395      194.29913      53.589652    
     21100  -6847.4098      38.726188     -6808.6836      184.98525      194.25387      53.613901    
     21200  -6845.5026      36.904674     -6808.598       184.87316      194.21472      53.63815     
     21300  -6844.3629      36.703446     -6807.6594      184.75689      194.1718       53.662399    
     21400  -6840.3868      35.594387     -6804.7924      184.64355      194.13201      53.686647    
     21500  -6838.7627      38.115739     -6800.647       184.53175      194.09312      53.710896    
     21600  -6836.2029      37.791808     -6798.4111      184.41685      194.04972      53.735145    
     21700  -6835.7411      38.649408     -6797.0917      184.31032      194.01277      53.759393    
     21800  -6834.2768      38.227605     -6796.0492      184.19999      193.96836      53.783642    
     21900  -6832.025       37.429126     -6794.5959      184.09385      193.92629      53.807891    
     22000  -6829.4055      37.144796     -6792.2607      183.99167      193.88612      53.83214     
     22100  -6824.6728      36.958939     -6787.7139      183.88826      193.83997      53.856388    
     22200  -6823.1402      38.854649     -6784.2855      183.78946      193.79723      53.880637    
     22300  -6822.3814      38.056632     -6784.3247      183.69127      193.75078      53.904886    
     22400  -6821.0938      37.060091     -6784.0338      183.59363      193.70363      53.929134    
     22500  -6818.4784      35.8524       -6782.626       183.50218      193.65948      53.953383    
     22600  -6814.9463      34.614153     -6780.3322      183.40871      193.60858      53.977632    
     22700  -6813.9032      37.76447      -6776.1387      183.32077      193.56086      54.001881    
     22800  -6811.7037      38.779344     -6772.9243      183.23473      193.51194      54.026129    
     22900  -6810.0181      37.800901     -6772.2172      183.14651      193.45966      54.050378    
     23000  -6809.1292      37.741641     -6771.3876      183.06195      193.41045      54.074627    
     23100  -6806.6279      36.970316     -6769.6575      182.97812      193.35937      54.098875    
     23200  -6804.7876      37.207302     -6767.5803      182.89599      193.30956      54.123124    
     23300  -6801.7416      36.738228     -6765.0034      182.81339      193.25736      54.147373    
     23400  -6800.2701      38.471921     -6761.7982      182.73328      193.20839      54.171621    
     23500  -6795.8813      36.919383     -6758.9619      182.65223      193.1593       54.19587     
     23600  -6796.9579      38.875345     -6758.0826      182.57088      193.11017      54.220119    
     23700  -6795.1142      36.922379     -6758.1918      182.49228      193.06347      54.244368    
     23800  -6791.8517      35.961011     -6755.8907      182.4094       193.01351      54.268616    
     23900  -6790.1699      37.553097     -6752.6168      182.33331      192.97188      54.292865    
     24000  -6787.9506      38.690911     -6749.2596      182.25008      192.92535      54.317114    
     24100  -6784.9167      39.378277     -6745.5385      182.16693      192.88125      54.341362    
     24200  -6781.2667      39.56693      -6741.6997      182.0897       192.84438      54.365611    
     24300  -6779.7359      37.788696     -6741.9472      182.00154      192.79979      54.38986     
     24400  -6778.5404      37.105853     -6741.4345      181.92097      192.76386      54.414109    
     24500  -6777.1218      36.96137      -6740.1604      181.83713      192.72744      54.438357    
     24600  -6775.317       36.674109     -6738.6429      181.75061      192.68943      54.462606    
     24700  -6773.5877      37.272517     -6736.3152      181.67137      192.66038      54.486855    
     24800  -6770.8025      38.801286     -6732.0013      181.58027      192.62243      54.511103    
     24900  -6766.9972      37.969691     -6729.0275      181.49734      192.59421      54.535352    
     25000  -6765.3494      37.243895     -6728.1055      181.41308      192.56548      54.559601    
     25100  -6764.9641      37.20471      -6727.7594      181.32312      192.53049      54.58385     
     25200  -6762.3035      36.721024     -6725.5825      181.24289      192.5053       54.608098    
     25300  -6759.8801      37.202081     -6722.6781      181.15667      192.47324      54.632347    
     25400  -6757.8822      38.36844      -6719.5138      181.07365      192.44473      54.656596    
     25500  -6753.5812      36.931109     -6716.6501      180.99202      192.4169       54.680844    
     25600  -6751.78        38.411439     -6713.3685      180.90611      192.38284      54.705093    
     25700  -6750.9476      39.713769     -6711.2338      180.82902      192.35722      54.729342    
     25800  -6748.0497      36.7556       -6711.2941      180.74747      192.32286      54.753591    
     25900  -6747.3391      37.29478      -6710.0443      180.66869      192.28932      54.777839    
     26000  -6744.3391      37.076988     -6707.2621      180.59534      192.25992      54.802088    
     26100  -6741.741       38.519892     -6703.2211      180.51722      192.2222       54.826337    
     26200  -6737.4445      38.017293     -6699.4272      180.44674      192.19042      54.850585    
     26300  -6735.045       38.099313     -6696.9457      180.37315      192.15177      54.874834    
     26400  -6734.2821      36.80006      -6697.482       180.30168      192.11334      54.899083    
     26500  -6732.9679      36.325441     -6696.6424      180.23541      192.07778      54.923332    
     26600  -6730.658       36.47062      -6694.1874      180.16662      192.03507      54.94758     
     26700  -6727.2433      36.980143     -6690.2632      180.10266      191.99632      54.971829    
     26800  -6725.3855      38.558026     -6686.8274      180.03925      191.95498      54.996078    
     26900  -6722.9163      37.801355     -6685.1149      179.97578      191.91242      55.020326    
     27000  -6723.4167      37.50026      -6685.9165      179.91417      191.87068      55.044575    
     27100  -6719.446       35.744907     -6683.7011      179.85073      191.8255       55.068824    
     27200  -6716.8085      36.96576      -6679.8427      179.79127      191.78523      55.093073    
     27300  -6713.5378      37.323065     -6676.2147      179.72997      191.74215      55.117321    
     27400  -6711.713       37.877988     -6673.835       179.66907      191.69983      55.14157     
     27500  -6708.9973      36.283717     -6672.7136      179.60887      191.65866      55.165819    
     27600  -6708.5778      35.640987     -6672.9368      179.54745      191.61611      55.190067    
     27700  -6706.2139      35.651053     -6670.5628      179.48836      191.57653      55.214316    
     27800  -6704.4094      37.871315     -6666.5381      179.42368      191.53419      55.238565    
     27900  -6699.2913      36.109188     -6663.1821      179.36357      191.49779      55.262814    
     28000  -6697.8884      37.67634      -6660.2121      179.30118      191.46223      55.287062    
     28100  -6695.089       37.624972     -6657.464       179.23429      191.42302      55.311311    
     28200  -6692.9796      37.879663     -6655.0999      179.17403      191.39289      55.33556     
     28300  -6691.1672      37.402548     -6653.7647      179.10527      191.35536      55.359808    
     28400  -6689.3159      36.416631     -6652.8993      179.04092      191.32376      55.384057    
     28500  -6686.5986      35.880498     -6650.7181      178.9754       191.29326      55.408306    
     28600  -6682.9997      37.073577     -6645.9261      178.9029       191.2585       55.432554    
     28700  -6680.797       38.039784     -6642.7573      178.84122      191.2376       55.456803    
     28800  -6678.8641      37.806904     -6641.0572      178.76717      191.20592      55.481052    
     28900  -6676.9463      36.939612     -6640.0067      178.69744      191.17936      55.505301    
     29000  -6672.6562      33.764673     -6638.8915      178.63178      191.15741      55.529549    
     29100  -6673.3275      35.64679      -6637.6807      178.55616      191.12336      55.553798    
     29200  -6670.9343      36.160898     -6634.7734      178.49257      191.10245      55.578047    
     29300  -6666.5691      36.616224     -6629.9529      178.42112      191.07323      55.602295    
     29400  -6664.6761      38.326044     -6626.3501      178.35035      191.04491      55.626544    
     29500  -6660.6974      36.830447     -6623.867       178.2876       191.02577      55.650793    
     29600  -6659.8144      36.878847     -6622.9355      178.21313      190.99123      55.675042    
     29700  -6658.9711      36.614676     -6622.3564      178.14999      190.96716      55.69929     
     29800  -6655.8636      36.504382     -6619.3592      178.08512      190.93757      55.723539    
     29900  -6652.4852      36.645187     -6615.8401      178.01748      190.9022       55.747788    
     30000  -6649.3099      36.389375     -6612.9205      177.95947      190.87753      55.772036    
     30100  -6646.2812      36.436116     -6609.8451      177.89224      190.84127      55.796285    
     30200  -6644.3067      37.488244     -6606.8185      177.83216      190.81098      55.820534    
     30300  -6641.4823      36.940403     -6604.5419      177.77446      190.78093      55.844783    
     30400  -6641.4215      37.812716     -6603.6088      177.71053      190.74007      55.869031    
     30500  -6639.7667      37.28477      -6602.482       177.65713      190.70859      55.89328     
     30600  -6636.1911      36.707075     -6599.484       177.59872      190.66918      55.917529    
     30700  -6631.0457      36.512869     -6594.5329      177.54163      190.63075      55.941777    
     30800  -6630.0331      38.272003     -6591.7611      177.48985      190.59732      55.966026    
     30900  -6627.9525      37.68647      -6590.266       177.42923      190.55375      55.990275    
     31000  -6625.6737      36.713861     -6588.9598      177.37862      190.51982      56.014524    
     31100  -6623.0462      35.707022     -6587.3391      177.32494      190.4801       56.038772    
     31200  -6622.2835      36.395052     -6585.8885      177.26772      190.43648      56.063021    
     31300  -6618.7102      36.111726     -6582.5985      177.21866      190.40173      56.08727     
     31400  -6615.8958      38.015011     -6577.8808      177.16116      190.35892      56.111518    
     31500  -6612.8595      38.128286     -6574.7312      177.10855      190.32184      56.135767    
     31600  -6609.471       36.748568     -6572.7224      177.05435      190.28515      56.160016    
     31700  -6608.7344      36.960108     -6571.7743      176.99621      190.24451      56.184265    
     31800  -6606.8894      35.887589     -6571.0018      176.94469      190.21216      56.208513    
     31900  -6603.645       35.848427     -6567.7966      176.88587      190.17324      56.232762    
     32000  -6600.2316      37.595487     -6562.6361      176.82949      190.13737      56.257011    
     32100  -6596.9875      37.164098     -6559.8234      176.77487      190.10525      56.281259    
     32200  -6594.1364      36.227736     -6557.9087      176.71262      190.06716      56.305508    
     32300  -6593.5427      36.972448     -6556.5703      176.65724      190.03839      56.329757    
     32400  -6591.5531      37.017067     -6554.536       176.59592      190.00512      56.354006    
     32500  -6588.8494      38.300676     -6550.5487      176.53515      189.97379      56.378254    
     32600  -6582.7918      36.554517     -6546.2373      176.47869      189.94654      56.402503    
     32700  -6581.8192      38.020121     -6543.7991      176.41299      189.9108       56.426752    
     32800  -6581.2625      37.960894     -6543.3016      176.35411      189.88338      56.451       
     32900  -6579.3185      37.2983       -6542.0202      176.29169      189.85456      56.475249    
     33000  -6574.0738      35.19549      -6538.8783      176.22558      189.82353      56.499498    
     33100  -6572.2207      37.083847     -6535.1369      176.16669      189.80106      56.523747    
     33200  -6568.6175      37.019894     -6531.5976      176.10015      189.76817      56.547995    
     33300  -6567.6041      38.388738     -6529.2154      176.04009      189.741        56.572244    
     33400  -6566.2054      36.793254     -6529.4121      175.9791       189.71204      56.596493    
     33500  -6563.6171      36.017857     -6527.5993      175.91315      189.67814      56.620741    
     33600  -6560.0778      36.731017     -6523.3468      175.85529      189.65343      56.64499     
     33700  -6556.5651      37.247525     -6519.3176      175.7901       189.621        56.669239    
     33800  -6553.1927      36.732971     -6516.4598      175.72851      189.5909       56.693487    
     33900  -6551.6115      37.129272     -6514.4822      175.67168      189.5628       56.717736    
     34000  -6550.5132      36.962983     -6513.5503      175.60708      189.52427      56.741985    
     34100  -6547.9836      35.330116     -6512.6535      175.55151      189.49603      56.766234    
     34200  -6544.2808      35.570817     -6508.71        175.49014      189.4622       56.790482    
     34300  -6541.0346      36.892809     -6504.1418      175.42881      189.42738      56.814731    
     34400  -6538.5849      37.519283     -6501.0656      175.3739       189.39868      56.83898     
     34500  -6535.5511      37.222508     -6498.3286      175.31193      189.3597       56.863228    
     34600  -6533.5572      37.016311     -6496.5408      175.2573       189.32735      56.887477    
     34700  -6533.1542      37.805783     -6495.3484      175.20107      189.29145      56.911726    
     34800  -6529.8465      36.460584     -6493.3859      175.14091      189.25224      56.935975    
     34900  -6524.7918      35.693481     -6489.0983      175.08765      189.22204      56.960223    
     35000  -6522.8874      38.297154     -6484.5902      175.027        189.18237      56.984472    
     35100  -6519.4917      37.413761     -6482.078       174.97035      189.14564      57.008721    
     35200  -6517.3946      36.568318     -6480.8263      174.91671      189.11088      57.032969    
     35300  -6514.322       34.366288     -6479.9557      174.85869      189.06998      57.057218    
     35400  -6512.9436      35.87962      -6477.064       174.80479      189.03396      57.081467    
     35500  -6509.2964      38.213135     -6471.0833      174.7478       188.99592      57.105716    
     35600  -6506.4692      37.925973     -6468.5432      174.69017      188.95763      57.129964    
     35700  -6505.0862      37.839402     -6467.2468      174.63473      188.92151      57.154213    
     35800  -6501.1638      35.265652     -6465.8982      174.57754      188.88102      57.178462    
     35900  -6500.8093      37.314497     -6463.4948      174.52266      188.84358      57.20271     
     36000  -6495.9311      37.304731     -6458.6264      174.46626      188.80552      57.226959    
     36100  -6492.0818      37.445614     -6454.6362      174.40866      188.76762      57.251208    
     36200  -6491.8315      38.935485     -6452.896       174.35099      188.73207      57.275457    
     36300  -6488.4316      36.442907     -6451.9887      174.29219      188.69555      57.299705    
     36400  -6485.5612      35.913694     -6449.6475      174.23336      188.65757      57.323954    
     36500  -6482.9956      36.439675     -6446.5559      174.17657      188.62017      57.348203    
     36600  -6479.6855      36.305062     -6443.3804      174.11831      188.58212      57.372451    
     36700  -6477.3099      36.865104     -6440.4448      174.05991      188.54682      57.3967      
     36800  -6475.1528      37.452338     -6437.7004      173.99857      188.50992      57.420949    
     36900  -6471.8345      36.744418     -6435.0901      173.9395       188.47539      57.445198    
     37000  -6470.1134      37.17016      -6432.9433      173.87959      188.43896      57.469446    
     37100  -6466.6112      35.935874     -6430.6753      173.81873      188.40071      57.493695    
     37200  -6464.9508      37.126803     -6427.824       173.75908      188.36562      57.517944    
     37300  -6460.3956      36.535364     -6423.8602      173.69747      188.32903      57.542192    
     37400  -6457.5929      37.75498      -6419.838       173.63561      188.29421      57.566441    
     37500  -6456.914       39.33436      -6417.5796      173.57506      188.25927      57.59069     
     37600  -6455.1649      37.409146     -6417.7558      173.51202      188.22174      57.614939    
     37700  -6450.1748      34.887889     -6415.2869      173.45083      188.18644      57.639187    
     37800  -6448.2474      36.931651     -6411.3158      173.39012      188.15049      57.663436    
     37900  -6445.0701      37.877393     -6407.1927      173.32503      188.11236      57.687685    
     38000  -6442.5857      38.220153     -6404.3655      173.26492      188.07873      57.711933    
     38100  -6440.1481      38.012243     -6402.1358      173.20055      188.04083      57.736182    
     38200  -6436.737       36.821371     -6399.9157      173.13823      188.00448      57.760431    
     38300  -6433.6795      35.962974     -6397.7165      173.07735      187.97029      57.78468     
     38400  -6431.8419      36.628049     -6395.2139      173.01153      187.93054      57.808928    
     38500  -6428.8436      36.995301     -6391.8483      172.95069      187.8962       57.833177    
     38600  -6425.8683      37.966234     -6387.9021      172.88694      187.85892      57.857426    
     38700  -6423.4599      38.719114     -6384.7408      172.82028      187.81914      57.881674    
     38800  -6420.4226      36.778945     -6383.6437      172.76044      187.78666      57.905923    
     38900  -6418.8754      36.161342     -6382.7141      172.69435      187.74612      57.930172    
     39000  -6416.1285      36.332294     -6379.7962      172.63063      187.70874      57.95442     
     39100  -6413.4719      37.489979     -6375.9819      172.57041      187.67479      57.978669    
     39200  -6409.2058      36.62786      -6372.5779      172.50118      187.63169      58.002918    
     39300  -6407.513       37.536115     -6369.9769      172.44047      187.59763      58.027167    
     39400  -6403.6785      36.207667     -6367.4709      172.37604      187.55923      58.051415    
     39500  -6400.6291      35.910003     -6364.7191      172.30774      187.5154       58.075664    
     39600  -6399.9262      38.860887     -6361.0654      172.24985      187.48269      58.099913    
     39700  -6394.6617      37.098206     -6357.5634      172.18189      187.43828      58.124161    
     39800  -6392.2808      36.674738     -6355.606       172.11809      187.39928      58.14841     
     39900  -6391.5407      36.683237     -6354.8574      172.05724      187.36302      58.172659    
     40000  -6387.6515      34.972574     -6352.6789      171.98752      187.31607      58.196908    
     40100  -6385.4314      36.840736     -6348.5906      171.92766      187.28008      58.221156    
     40200  -6381.2164      37.840092     -6343.3763      171.8635       187.23741      58.245405    
     40300  -6378.2683      37.247632     -6341.0207      171.79525      187.19072      58.269654    
     40400  -6375.9696      36.155547     -6339.8141      171.7384       187.15543      58.293902    
     40500  -6376.4903      38.364417     -6338.1259      171.66969      187.10768      58.318151    
     40600  -6371.8401      36.471452     -6335.3686      171.60668      187.06483      58.3424      
     40700  -6369.1703      38.986988     -6330.1833      171.54714      187.02619      58.366649    
     40800  -6364.1382      37.77274      -6326.3655      171.47735      186.97477      58.390897    
     40900  -6363.1085      38.213823     -6324.8947      171.41898      186.93453      58.415146    
     41000  -6360.5544      37.266085     -6323.2883      171.35508      186.8889       58.439395    
     41100  -6358.3873      37.64883      -6320.7385      171.28783      186.83972      58.463643    
     41200  -6354.6231      36.869003     -6317.7541      171.22965      186.79939      58.487892    
     41300  -6351.6485      37.266807     -6314.3817      171.16391      186.74962      58.512141    
     41400  -6348.804       39.402201     -6309.4018      171.10106      186.70228      58.53639     
     41500  -6344.6637      38.762403     -6305.9013      171.04145      186.65908      58.560638    
     41600  -6344.6851      39.285891     -6305.3992      170.97116      186.60568      58.584887    
     41700  -6340.3008      36.240804     -6304.06        170.91111      186.56369      58.609136    
     41800  -6338.1444      36.769628     -6301.3747      170.84371      186.51452      58.633384    
     41900  -6334.9195      36.864457     -6298.055       170.77789      186.46522      58.657633    
     42000  -6331.9216      38.450657     -6293.471       170.71655      186.4225       58.681882    
     42100  -6328.1811      38.485169     -6289.696       170.64563      186.37172      58.706131    
     42200  -6327.7162      38.42502      -6289.2912      170.58002      186.32892      58.730379    
     42300  -6323.5547      35.740188     -6287.8145      170.51201      186.28435      58.754628    
     42400  -6322.1443      37.388641     -6284.7556      170.44003      186.23591      58.778877    
     42500  -6318.408       37.543888     -6280.8641      170.3745       186.19506      58.803125    
     42600  -6314.6787      38.342196     -6276.3365      170.30119      186.14772      58.827374    
     42700  -6312.4441      39.441822     -6273.0023      170.23047      186.10552      58.851623    
     42800  -6309.8673      36.451749     -6273.4156      170.16121      186.06505      58.875872    
     42900  -6308.2542      36.963958     -6271.2902      170.084        186.0171       58.90012     
     43000  -6304.2282      36.551797     -6267.6764      170.01646      185.98054      58.924369    
     43100  -6301.8637      38.565749     -6263.2979      169.93944      185.93545      58.948618    
     43200  -6298.9639      38.584382     -6260.3795      169.86291      185.89244      58.972866    
     43300  -6295.7704      36.041282     -6259.7291      169.79211      185.85543      58.997115    
     43400  -6294.9076      36.679334     -6258.2283      169.71211      185.80953      59.021364    
     43500  -6290.607       36.217485     -6254.3895      169.6387       185.77085      59.045613    
     43600  -6288.0805      38.036098     -6250.0444      169.56389      185.7313       59.069861    
     43700  -6284.6713      37.929731     -6246.7415      169.48315      185.68534      59.09411     
     43800  -6282.2675      37.911235     -6244.3563      169.41146      185.64919      59.118359    
     43900  -6278.8683      36.349952     -6242.5183      169.33152      185.60256      59.142607    
     44000  -6277.8972      36.860593     -6241.0366      169.25565      185.55966      59.166856    
     44100  -6274.7224      34.797912     -6239.9245      169.1823       185.51905      59.191105    
     44200  -6271.684       36.237666     -6235.4463      169.10206      185.46948      59.215353    
     44300  -6267.8994      37.208354     -6230.691       169.03064      185.42989      59.239602    
     44400  -6264.3876      37.353051     -6227.0345      168.95496      185.3839       59.263851    
     44500  -6261.9122      37.778801     -6224.1334      168.87848      185.33434      59.2881      
     44600  -6259.1352      36.600926     -6222.5343      168.80997      185.29125      59.312348    
     44700  -6256.4667      35.027555     -6221.4391      168.73359      185.23788      59.336597    
     44800  -6255.0316      37.032438     -6217.9991      168.66108      185.188        59.360846    
     44900  -6250.2487      37.633593     -6212.6151      168.59215      185.14098      59.385094    
     45000  -6247.6154      37.996687     -6209.6187      168.5166       185.08318      59.409343    
     45100  -6243.4867      36.120034     -6207.3666      168.44946      185.03394      59.433592    
     45200  -6241.905       36.194509     -6205.7105      168.38012      184.98037      59.457841    
     45300  -6240.3414      36.183567     -6204.1579      168.3075       184.92209      59.482089    
     45400  -6237.0475      35.28934      -6201.7581      168.24214      184.87141      59.506338    
     45500  -6233.7193      37.397194     -6196.3221      168.17082      184.81336      59.530587    
     45600  -6229.8702      37.505561     -6192.3646      168.10027      184.75564      59.554835    
     45700  -6227.9659      37.788052     -6190.1778      168.03436      184.7011       59.579084    
     45800  -6225.0443      36.11691      -6188.9274      167.96398      184.64167      59.603333    
     45900  -6223.7248      36.784677     -6186.9402      167.89542      184.58397      59.627582    
     46000  -6218.787       36.535899     -6182.2511      167.82781      184.52913      59.65183     
     46100  -6215.2799      37.918821     -6177.3611      167.7567       184.47153      59.676079    
     46200  -6212.8376      37.732583     -6175.105       167.68659      184.41446      59.700328    
     46300  -6209.6369      35.633369     -6174.0035      167.61751      184.35872      59.724576    
     46400  -6208.557       36.49764      -6172.0594      167.5445       184.30132      59.748825    
     46500  -6204.3188      35.678347     -6168.6405      167.4718       184.24593      59.773074    
     46600  -6202.3274      37.572162     -6164.7552      167.40063      184.19381      59.797323    
     46700  -6199.1872      37.475005     -6161.7122      167.32344      184.1379       59.821571    
     46800  -6196.4737      37.354481     -6159.1192      167.24977      184.08679      59.84582     
     46900  -6192.7812      36.236971     -6156.5443      167.17526      184.03645      59.870069    
     47000  -6191.5114      36.819814     -6154.6916      167.0951       183.98189      59.894317    
     47100  -6188.8544      35.995716     -6152.8587      167.0189       183.93481      59.918566    
     47200  -6186.3627      37.261577     -6149.1011      166.9392       183.8871       59.942815    
     47300  -6182.0819      38.184955     -6143.8969      166.85556      183.83582      59.967064    
     47400  -6178.5573      37.83617      -6140.7211      166.7783       183.79207      59.991312    
     47500  -6176.0874      37.125509     -6138.9619      166.69561      183.74396      60.015561    
     47600  -6174.2198      36.830797     -6137.389       166.61075      183.69608      60.03981     
     47700  -6170.8464      36.379676     -6134.4667      166.5312       183.65622      60.064058    
     47800  -6168.6038      37.531318     -6131.0725      166.44495      183.60911      60.088307    
     47900  -6165.6011      37.983586     -6127.6175      166.36034      183.56327      60.112556    
     48000  -6161.5952      37.288738     -6124.3064      166.27921      183.5209       60.136805    
     48100  -6158.931       37.454628     -6121.4764      166.19257      183.47251      60.161053    
     48200  -6158.062       38.553972     -6119.5081      166.10901      183.42852      60.185302    
     48300  -6154.5024      36.828258     -6117.6741      166.02731      183.38538      60.209551    
     48400  -6150.5574      36.137148     -6114.4203      165.9411       183.33565      60.233799    
     48500  -6147.7067      38.679137     -6109.0276      165.86145      183.292        60.258048    
     48600  -6143.754       38.223391     -6105.5306      165.77968      183.24387      60.282297    
     48700  -6141.7582      37.994017     -6103.7642      165.69532      183.19291      60.306546    
     48800  -6139.246       37.44469      -6101.8013      165.61775      183.14776      60.330794    
     48900  -6135.9662      36.937598     -6099.0286      165.53583      183.0964       60.355043    
     49000  -6133.5276      37.572008     -6095.9556      165.45556      183.04304      60.379292    
     49100  -6130.1077      37.454375     -6092.6533      165.38145      182.99546      60.40354     
     49200  -6126.1882      37.834276     -6088.3539      165.30265      182.93895      60.427789    
     49300  -6124.2439      39.793102     -6084.4508      165.22629      182.88545      60.452038    
     49400  -6120.1566      36.942409     -6083.2142      165.15298      182.83375      60.476286    
     49500  -6118.7973      36.755534     -6082.0418      165.07768      182.77541      60.500535    
     49600  -6116.5498      37.309439     -6079.2404      165.00626      182.71981      60.524784    
     49700  -6112.2973      37.041259     -6075.256       164.93482      182.66278      60.549033    
     49800  -6107.4866      37.169706     -6070.3169      164.86212      182.60255      60.573281    
     49900  -6104.9754      38.679887     -6066.2955      164.79263      182.54506      60.59753     
     50000  -6103.2952      36.97307      -6066.3221      164.72366      182.4871       60.621779    
     50100  -6101.9843      37.360849     -6064.6235      164.65349      182.42563      60.646027    
     50200  -6099.3113      37.670461     -6061.6409      164.5861       182.36688      60.670276    
     50300  -6096.3742      38.703476     -6057.6708      164.51756      182.30616      60.694525    
     50400  -6090.8234      37.515271     -6053.3081      164.44858      182.24545      60.718774    
     50500  -6088.6772      38.66993      -6050.0073      164.38239      182.1859       60.743022    
     50600  -6087.0024      37.221703     -6049.7807      164.31336      182.12429      60.767271    
     50700  -6084.5212      36.888159     -6047.633       164.24619      182.06587      60.79152     
     50800  -6081.339       37.5642       -6043.7748      164.17645      182.00601      60.815768    
     50900  -6077.9956      38.689302     -6039.3063      164.10921      181.94912      60.840017    
     51000  -6072.9168      37.402327     -6035.5145      164.04174      181.89179      60.864266    
     51100  -6070.7086      37.279116     -6033.4295      163.9704       181.8334       60.888515    
     51200  -6071.172       38.514061     -6032.6579      163.90231      181.77993      60.912763    
     51300  -6065.9717      35.745213     -6030.2265      163.83181      181.72473      60.937012    
     51400  -6062.8519      36.63993      -6026.212       163.75843      181.66977      60.961261    
     51500  -6058.4827      37.259491     -6021.2232      163.69129      181.6218       60.985509    
     51600  -6056.4957      38.332202     -6018.1635      163.61482      181.56669      61.009758    
     51700  -6053.3343      36.806036     -6016.5282      163.54305      181.51754      61.034007    
     51800  -6052.2203      38.178655     -6014.0416      163.47316      181.471        61.058256    
     51900  -6048.2489      36.795891     -6011.453       163.39489      181.42016      61.082504    
     52000  -6045.8829      37.325331     -6008.5576      163.32513      181.37809      61.106753    
     52100  -6042.8312      37.582487     -6005.2487      163.24872      181.33054      61.131002    
     52200  -6039.3973      38.190369     -6001.2069      163.17163      181.28303      61.15525     
     52300  -6034.3617      37.09412      -5997.2676      163.10203      181.24461      61.179499    
     52400  -6032.9574      37.354854     -5995.6025      163.02119      181.19646      61.203748    
     52500  -6031.8199      37.320407     -5994.4995      162.94707      181.15426      61.227997    
     52600  -6028.7871      37.349769     -5991.4374      162.87653      181.11654      61.252245    
     52700  -6025.049       37.553017     -5987.496       162.79471      181.06754      61.276494    
     52800  -6021.2898      38.770062     -5982.5198      162.72528      181.03108      61.300743    
     52900  -6016.948       39.248979     -5977.699       162.65134      180.99024      61.324991    
     53000  -6013.9913      36.765946     -5977.2254      162.57267      180.94303      61.34924     
     53100  -6013.3043      37.680445     -5975.6238      162.505        180.9078       61.373489    
     53200  -6009.9139      36.567508     -5973.3464      162.43086      180.86188      61.397738    
     53300  -6007.3007      36.618266     -5970.6825      162.35902      180.81743      61.421986    
     53400  -6004.0514      37.320406     -5966.731       162.2933       180.77949      61.446235    
     53500  -5999.1136      37.028227     -5962.0853      162.21944      180.73098      61.470484    
     53600  -5997.094       38.745566     -5958.3484      162.15488      180.69182      61.494732    
     53700  -5995.9457      38.091238     -5957.8545      162.08973      180.64773      61.518981    
     53800  -5992.5542      36.672313     -5955.8819      162.02078      180.59812      61.54323     
     53900  -5989.7479      37.180553     -5952.5673      161.96245      180.55931      61.567478    
     54000  -5984.8435      36.509301     -5948.3342      161.89541      180.50877      61.591727    
     54100  -5981.8095      38.337247     -5943.4723      161.8327       180.46164      61.615976    
     54200  -5979.6708      38.800448     -5940.8703      161.77631      180.41957      61.640225    
     54300  -5977.8915      37.165627     -5940.7259      161.7138       180.3681       61.664473    
     54400  -5975.6916      37.604762     -5938.0869      161.65829      180.32255      61.688722    
     54500  -5973.2097      38.772419     -5934.4373      161.60147      180.27677      61.712971    
     54600  -5966.3991      36.087709     -5930.3114      161.54243      180.22553      61.737219    
     54700  -5962.8078      36.768318     -5926.0395      161.48987      180.18063      61.761468    
     54800  -5962.499       38.342152     -5924.1568      161.43403      180.13115      61.785717    
     54900  -5959.4636      36.161867     -5923.3017      161.3809       180.08247      61.809966    
     55000  -5956.9948      36.592707     -5920.4021      161.32942      180.03621      61.834214    
     55100  -5952.6126      36.200924     -5916.4117      161.27343      179.98459      61.858463    
     55200  -5949.1019      37.889718     -5911.2122      161.22563      179.94129      61.882712    
     55300  -5947.4804      40.142483     -5907.338       161.17404      179.89266      61.90696     
     55400  -5944.8614      37.436298     -5907.4251      161.12116      179.84227      61.931209    
     55500  -5941.8892      36.834453     -5905.0548      161.07538      179.80108      61.955458    
     55600  -5939.531       37.523492     -5902.0075      161.02128      179.75088      61.979707    
     55700  -5935.8831      37.881357     -5898.0018      160.97228      179.70766      62.003955    
     55800  -5932.5862      39.043915     -5893.5423      160.92384      179.66466      62.028204    
     55900  -5929.1034      38.712801     -5890.3906      160.8707       179.61704      62.052453    
     56000  -5927.7618      37.882694     -5889.8791      160.8253       179.5782       62.076701    
     56100  -5923.3952      35.838582     -5887.5566      160.77416      179.53642      62.10095     
     56200  -5920.7981      37.160119     -5883.638       160.72172      179.49417      62.125199    
     56300  -5916.7963      37.811373     -5878.9849      160.67716      179.45948      62.149448    
     56400  -5914.1116      39.333862     -5874.7777      160.62297      179.41572      62.173696    
     56500  -5910.1946      37.816736     -5872.3779      160.57415      179.37919      62.197945    
     56600  -5908.7991      37.131402     -5871.6677      160.5271       179.34623      62.222194    
     56700  -5905.8807      36.593099     -5869.2876      160.47279      179.30868      62.246442    
     56800  -5902.5516      36.789709     -5865.7619      160.42435      179.27668      62.270691    
     56900  -5898.7406      37.910198     -5860.8304      160.37396      179.24374      62.29494     
     57000  -5894.832       38.489722     -5856.3422      160.32159      179.20809      62.319189    
     57100  -5893.327       37.973012     -5855.354       160.27594      179.18137      62.343437    
     57200  -5890.7941      36.906624     -5853.8875      160.22253      179.14832      62.367686    
     57300  -5888.3354      37.535004     -5850.8004      160.17335      179.11992      62.391935    
     57400  -5884.2849      37.607656     -5846.6772      160.12594      179.09413      62.416183    
     57500  -5880.7352      38.428255     -5842.3069      160.07171      179.06032      62.440432    
     57600  -5876.7215      38.210784     -5838.5107      160.02546      179.03495      62.464681    
     57700  -5874.8862      37.134321     -5837.7519      159.9776       179.0073       62.48893     
     57800  -5872.3339      36.603582     -5835.7303      159.9265       178.97755      62.513178    
     57900  -5869.8152      37.671757     -5832.1434      159.88235      178.95613      62.537427    
     58000  -5865.2613      37.657009     -5827.6043      159.83218      178.9251       62.561676    
     58100  -5863.0192      39.889082     -5823.1301      159.78488      178.8966       62.585924    
     58200  -5858.1752      37.886294     -5820.2889      159.74166      178.87201      62.610173    
     58300  -5855.4535      35.768217     -5819.6853      159.69406      178.84224      62.634422    
     58400  -5854.6239      37.55987      -5817.064       159.65303      178.8186       62.658671    
     58500  -5850.7924      37.13771      -5813.6547      159.60865      178.78722      62.682919    
     58600  -5847.2725      37.415049     -5809.8575      159.56676      178.75752      62.707168    
     58700  -5844.0578      38.583948     -5805.4739      159.52897      178.73233      62.731417    
     58800  -5840.7788      38.447595     -5802.3312      159.48416      178.69767      62.755665    
     58900  -5838.5941      37.377179     -5801.2169      159.44952      178.67304      62.779914    
     59000  -5836.317       37.454183     -5798.8628      159.41165      178.64242      62.804163    
     59100  -5832.5571      37.226469     -5795.3307      159.37243      178.60736      62.828411    
     59200  -5829.3163      38.528514     -5790.7878      159.34341      178.58507      62.85266     
     59300  -5824.6244      39.144059     -5785.4803      159.301        178.5456       62.876909    
     59400  -5820.8834      38.698035     -5782.1854      159.26886      178.51757      62.901158    
     59500  -5819.6028      37.65952      -5781.9432      159.23891      178.49028      62.925406    
     59600  -5816.3367      36.723064     -5779.6136      159.20178      178.45229      62.949655    
     59700  -5813.6484      36.889532     -5776.7589      159.17528      178.42659      62.973904    
     59800  -5810.8932      37.048598     -5773.8446      159.14297      178.39349      62.998152    
     59900  -5807.7146      37.698577     -5770.016       159.10985      178.36014      63.022401    
     60000  -5802.6539      37.681055     -5764.9728      159.08342      178.33369      63.04665     
     60100  -5800.021       38.510651     -5761.5103      159.04837      178.29653      63.070899    
     60200  -5797.5877      37.140937     -5760.4468      159.02138      178.26882      63.095147    
     60300  -5796.0785      38.076039     -5758.0025      158.99289      178.2393       63.119396    
     60400  -5791.0236      36.416335     -5754.6072      158.96039      178.20446      63.143645    
     60500  -5787.9355      37.525467     -5750.41        158.93587      178.17923      63.167893    
     60600  -5784.8311      38.648339     -5746.1828      158.90479      178.14764      63.192142    
     60700  -5780.9767      37.923788     -5743.0529      158.87482      178.11795      63.216391    
     60800  -5778.8947      37.135945     -5741.7587      158.84918      178.09352      63.24064     
     60900  -5775.7689      36.41757      -5739.3513      158.81769      178.06421      63.264888    
     61000  -5772.7916      37.157769     -5735.6338      158.78824      178.03655      63.289137    
     61100  -5768.8499      38.158723     -5730.6912      158.76194      178.01301      63.313386    
     61200  -5762.7165      37.76628      -5724.9502      158.72822      177.98146      63.337634    
     61300  -5759.7763      37.495474     -5722.2808      158.70209      177.96028      63.361883    
     61400  -5759.0441      37.552363     -5721.4917      158.67277      177.93602      63.386132    
     61500  -5755.8458      36.722767     -5719.1231      158.64007      177.91015      63.410381    
     61600  -5753.7039      37.245762     -5716.4581      158.61444      177.89275      63.434629    
     61700  -5749.9129      36.511822     -5713.4011      158.57943      177.86574      63.458878    
     61800  -5747.2981      36.980055     -5710.318       158.55081      177.84601      63.483127    
     61900  -5742.3569      36.135799     -5706.2211      158.52135      177.82582      63.507375    
     62000  -5738.334       37.173501     -5701.1605      158.48797      177.80264      63.531624    
     62100  -5735.1633      38.107278     -5697.056       158.45778      177.78456      63.555873    
     62200  -5733.4799      37.43663      -5696.0433      158.42643      177.76436      63.580122    
     62300  -5730.2146      36.498111     -5693.7165      158.3956       177.74586      63.60437     
     62400  -5725.8842      35.905658     -5689.9786      158.36509      177.72722      63.628619    
     62500  -5724.1922      38.267734     -5685.9245      158.33301      177.7073       63.652868    
     62600  -5719.9931      38.962975     -5681.0302      158.30314      177.68966      63.677116    
     62700  -5715.9614      38.983424     -5676.978       158.27098      177.66989      63.701365    
     62800  -5713.6957      37.792122     -5675.9035      158.24094      177.65213      63.725614    
     62900  -5710.3558      36.738816     -5673.6169      158.21161      177.63479      63.749863    
     63000  -5706.4738      36.368811     -5670.105       158.18021      177.61455      63.774111    
     63100  -5704.7393      38.177594     -5666.5617      158.15127      177.59647      63.79836     
     63200  -5699.2843      36.146004     -5663.1383      158.12116      177.57696      63.822609    
     63300  -5696.8079      37.187218     -5659.6207      158.0932       177.55898      63.846857    
     63400  -5693.0818      36.592273     -5656.4895      158.06434      177.53814      63.871106    
     63500  -5689.778       36.18103      -5653.597       158.03794      177.51929      63.895355    
     63600  -5687.5531      36.947991     -5650.6051      158.01039      177.49818      63.919604    
     63700  -5682.9988      35.673825     -5647.325       157.98497      177.47909      63.943852    
     63800  -5680.1413      37.099294     -5643.042       157.95768      177.45585      63.968101    
     63900  -5675.3652      38.188325     -5637.1769      157.93218      177.43454      63.99235     
     64000  -5671.0728      37.946213     -5633.1266      157.90681      177.41187      64.016598    
     64100  -5667.8534      36.265134     -5631.5883      157.88145      177.38864      64.040847    
     64200  -5666.8391      38.006585     -5628.8326      157.85947      177.36912      64.065096    
     64300  -5663.1586      38.259882     -5624.8987      157.83302      177.34375      64.089344    
     64400  -5658.3554      37.330697     -5621.0247      157.81196      177.32441      64.113593    
     64500  -5655.9229      37.408327     -5618.5145      157.78727      177.29998      64.137842    
     64600  -5652.5438      35.966197     -5616.5776      157.76446      177.27742      64.162091    
     64700  -5649.6342      37.157145     -5612.4771      157.74175      177.2546       64.186339    
     64800  -5643.3757      36.752957     -5606.6227      157.71776      177.23009      64.210588    
     64900  -5640.388       40.034401     -5600.3536      157.69528      177.20699      64.234837    
     65000  -5636.7552      39.923916     -5596.8313      157.67135      177.18271      64.259085    
     65100  -5631.7309      37.559901     -5594.171       157.6495       177.16058      64.283334    
     65200  -5629.8103      37.693682     -5592.1167      157.62627      177.13695      64.307583    
     65300  -5626.0225      36.588359     -5589.4341      157.6044       177.11582      64.331832    
     65400  -5623.235       36.9278       -5586.3072      157.58059      177.0916       64.35608     
     65500  -5620.0921      37.113365     -5582.9788      157.55894      177.07111      64.380329    
     65600  -5614.9545      35.982654     -5578.9718      157.53383      177.04674      64.404578    
     65700  -5611.2038      36.780086     -5574.4237      157.51115      177.02602      64.428826    
     65800  -5607.7344      38.071418     -5569.663       157.48611      177.00374      64.453075    
     65900  -5603.9066      37.751718     -5566.1549      157.46143      176.98254      64.477324    
     66000  -5601.2407      37.42537      -5563.8154      157.43735      176.96295      64.501573    
     66100  -5597.232       36.657587     -5560.5744      157.41194      176.94202      64.525821    
     66200  -5594.7741      38.570444     -5556.2037      157.38785      176.9226       64.55007     
     66300  -5587.7022      36.77989      -5550.9223      157.36176      176.90149      64.574319    
     66400  -5582.9712      38.825187     -5544.146       157.33792      176.88335      64.598567    
     66500  -5580.3856      39.58268      -5540.8029      157.31034      176.86194      64.622816    
     66600  -5576.9094      38.374306     -5538.5351      157.28623      176.84525      64.647065    
     66700  -5574.5011      38.580046     -5535.9211      157.25726      176.82359      64.671314    
     66800  -5569.1698      36.14227      -5533.0275      157.23322      176.80727      64.695562    
     66900  -5567.8914      38.221719     -5529.6697      157.20487      176.78751      64.719811    
     67000  -5562.2395      36.177043     -5526.0624      157.17929      176.76985      64.74406     
     67100  -5559.0792      36.974932     -5522.1043      157.15268      176.75114      64.768308    
     67200  -5553.9877      36.036566     -5517.9511      157.12564      176.73053      64.792557    
     67300  -5551.3399      37.859294     -5513.4806      157.1017       176.71429      64.816806    
     67400  -5546.2302      37.223118     -5509.007       157.07306      176.69208      64.841055    
     67500  -5541.7903      36.955186     -5504.8351      157.04872      176.675        64.865303    
     67600  -5539.8349      37.520386     -5502.3145      157.02015      176.65367      64.889552    
     67700  -5535.5564      36.820009     -5498.7364      156.99443      176.63465      64.913801    
     67800  -5530.102       36.312723     -5493.7893      156.96769      176.61417      64.938049    
     67900  -5525.8953      38.730324     -5487.1649      156.94242      176.59414      64.962298    
     68000  -5520.0356      39.862124     -5480.1735      156.91518      176.5723       64.986547    
     68100  -5514.7753      37.352224     -5477.423       156.89079      176.55109      65.010796    
     68200  -5512.8396      38.184619     -5474.655       156.8672       176.53071      65.035044    
     68300  -5508.5807      36.663547     -5471.9172      156.84044      176.5067       65.059293    
     68400  -5504.5501      35.57752      -5468.9726      156.81843      176.48746      65.083542    
     68500  -5501.2344      36.207641     -5465.0268      156.79168      176.46342      65.10779     
     68600  -5499.0606      38.038814     -5461.0218      156.76738      176.44174      65.132039    
     68700  -5494.154       37.082582     -5457.0714      156.74278      176.41963      65.156288    
     68800  -5490.9662      36.789568     -5454.1767      156.71693      176.39504      65.180537    
     68900  -5485.6348      36.052469     -5449.5823      156.69455      176.37456      65.204785    
     69000  -5480.6978      37.499631     -5443.1982      156.66847      176.34864      65.229034    
     69100  -5475.9309      40.394466     -5435.5364      156.64515      176.32514      65.253283    
     69200  -5471.2586      39.419626     -5431.839       156.62117      176.30177      65.277531    
     69300  -5466.6789      37.915827     -5428.763       156.59562      176.27693      65.30178     
     69400  -5461.5797      36.293166     -5425.2865      156.57191      176.25467      65.326029    
     69500  -5459.0867      37.666556     -5421.4202      156.54586      176.22915      65.350277    
     69600  -5454.9874      37.321485     -5417.6659      156.52156      176.20573      65.374526    
     69700  -5450.6624      37.416055     -5413.2464      156.49626      176.18021      65.398775    
     69800  -5445.6238      36.527592     -5409.0962      156.47149      176.15513      65.423024    
     69900  -5441.8287      36.670555     -5405.1581      156.44698      176.13052      65.447272    
     70000  -5437.5473      35.03143      -5402.5159      156.42208      176.10504      65.471521    
     70100  -5433.9303      37.562661     -5396.3676      156.3977       176.08095      65.49577     
     70200  -5428.8684      38.743323     -5390.125       156.37036      176.0541       65.520018    
     70300  -5424.1752      39.069145     -5385.1061      156.34573      176.03079      65.544267    
     70400  -5418.6776      36.320375     -5382.3573      156.319        176.00439      65.568516    
     70500  -5414.6778      36.809212     -5377.8686      156.29272      175.9792       65.592765    
     70600  -5410.9246      38.484696     -5372.4399      156.26689      175.95461      65.617013    
     70700  -5407.0236      38.748168     -5368.2755      156.23946      175.92733      65.641262    
     70800  -5402.546       38.593392     -5363.9526      156.21281      175.90238      65.665511    
     70900  -5395.9245      37.566166     -5358.3584      156.18645      175.87701      65.689759    
     71000  -5392.1588      38.47554      -5353.6833      156.15781      175.84982      65.714008    
     71100  -5387.0894      38.41994      -5348.6695      156.13123      175.82561      65.738257    
     71200  -5381.7219      37.515046     -5344.2068      156.10228      175.79985      65.762506    
     71300  -5376.3661      36.98318      -5339.383       156.07279      175.77304      65.786754    
     71400  -5371.8754      37.068008     -5334.8074      156.04632      175.74967      65.811003    
     71500  -5366.7382      36.535772     -5330.2025      156.01469      175.72015      65.835252    
     71600  -5364.0558      38.5034       -5325.5524      155.98758      175.69545      65.8595      
     71700  -5359.3033      38.426958     -5320.8763      155.95802      175.66821      65.883749    
     71800  -5354.6049      38.014908     -5316.59        155.92793      175.64098      65.907998    
     71900  -5349.2949      38.089573     -5311.2053      155.89949      175.61568      65.932247    
     72000  -5344.9422      38.256062     -5306.6862      155.8673       175.58644      65.956495    
     72100  -5339.7306      38.719452     -5301.0112      155.83879      175.56137      65.980744    
     72200  -5335.1876      38.878322     -5296.3093      155.80769      175.53321      66.004993    
     72300  -5328.9453      37.451014     -5291.4943      155.77644      175.50479      66.029241    
     72400  -5325.3504      38.871067     -5286.4793      155.74642      175.47785      66.05349     
     72500  -5320.5955      39.176911     -5281.4186      155.71372      175.4473       66.077739    
     72600  -5313.9765      36.734376     -5277.2421      155.68332      175.42024      66.101988    
[...]
    117700  -6795.7524      37.279802     -6758.4726      167.2212       195.55257      77.038156    
    117800  -6795.7094      38.587023     -6757.1223      167.22853      195.62646      77.062405    
    117900  -6794.8863      38.207188     -6756.6792      167.25338      195.71521      77.086654    
    118000  -6794.8672      37.090302     -6757.7769      167.26789      195.8044       77.110903    
    118100  -6795.4932      37.463812     -6758.0294      167.28489      195.89451      77.135151    
    118200  -6794.0356      36.627159     -6757.4084      167.30073      195.9784       77.1594      
    118300  -6794.696       38.271739     -6756.4242      167.30709      196.05974      77.183649    
    118400  -6792.1036      36.969957     -6755.1337      167.31987      196.15255      77.207897    
    118500  -6792.7307      37.11168      -6755.619       167.33715      196.2501       77.232146    
    118600  -6792.283       37.652035     -6754.6309      167.35576      196.34792      77.256395    
    118700  -6790.7586      36.763148     -6753.9955      167.36861      196.44429      77.280644    
    118800  -6791.5781      41.505325     -6750.0728      167.38901      196.54179      77.304892    
    118900  -6835.1939      68.204733     -6766.9892      167.40764      196.64278      77.329141    
    119000  -6842.3402      53.126614     -6789.2135      167.44486      196.75834      77.35339     
    119100  -6845.5983      42.096216     -6803.5021      167.46231      196.86785      77.377638    
    119200  -6851.7463      39.781623     -6811.9647      167.45161      196.9703       77.401887    
    119300  -6855.4401      36.807953     -6818.6322      167.44745      197.09274      77.426136    
    119400  -6858.6236      35.96695      -6822.6567      167.45661      197.22696      77.450385    
    119500  -6859.054       35.843267     -6823.2107      167.47106      197.34652      77.474633    
    119600  -6857.9058      37.475018     -6820.4307      167.48008      197.46024      77.498882    
    119700  -6855.1139      37.243306     -6817.8706      167.47555      197.58083      77.523131    
    119800  -6854.954       38.597795     -6816.3562      167.46961      197.71463      77.547379    
    119900  -6855.8333      38.472811     -6817.3605      167.47136      197.85197      77.571628    
    120000  -6856.4332      36.846836     -6819.5864      167.47224      197.97459      77.595877    
    120100  -6855.0837      34.866879     -6820.2169      167.48083      198.10176      77.620126    
    120200  -6854.1947      35.894065     -6818.3006      167.50037      198.21945      77.644374    
    120300  -6853.367       37.878161     -6815.4889      167.5265       198.32371      77.668623    
    120400  -6853.0302      38.078427     -6814.9517      167.54952      198.4204       77.692872    
    120500  -6853.9109      37.489342     -6816.4215      167.57148      198.5092       77.71712     
    120600  -6853.6566      35.757477     -6817.8991      167.59895      198.60692      77.741369    
    120700  -6854.0978      35.972072     -6818.1257      167.62781      198.7114       77.765618    
    120800  -6853.8696      36.383727     -6817.4858      167.65876      198.82126      77.789866    
    120900  -6855.3519      38.982826     -6816.3691      167.6915       198.93173      77.814115    
    121000  -6855.2849      38.482496     -6816.8024      167.72859      199.046        77.838364    
    121100  -6855.4115      36.126736     -6819.2847      167.75687      199.16081      77.862613    
    121200  -6856.0469      35.234919     -6820.812       167.78553      199.27594      77.886861    
    121300  -6856.3357      36.696647     -6819.639       167.81938      199.38933      77.91111     
    121400  -6854.8156      37.865542     -6816.9501      167.84663      199.504        77.935359    
    121500  -6854.2534      38.970286     -6815.2831      167.84724      199.61928      77.959607    
    121600  -6855.1396      39.486351     -6815.6533      167.86821      199.75071      77.983856    
    121700  -6854.5857      37.033494     -6817.5522      167.88906      199.87964      78.008105    
    121800  -6855.0926      35.796278     -6819.2963      167.89649      200.00632      78.032354    
    121900  -6856.6264      37.263283     -6819.3631      167.90554      200.13411      78.056602    
    122000  -6855.69        37.400333     -6818.2897      167.91699      200.2646       78.080851    
    122100  -6854.2515      37.632716     -6816.6188      167.93051      200.3988       78.1051      
    122200  -6858.0891      41.973353     -6816.1158      167.93624      200.53442      78.129348    
    122300  -6858.1997      39.120448     -6819.0792      167.94765      200.67508      78.153597    
    122400  -6859.0378      36.823738     -6822.214       167.95711      200.81503      78.177846    
    122500  -6860.3011      36.306421     -6823.9947      167.96227      200.94841      78.202095    
    122600  -6860.3416      36.055538     -6824.2861      167.98226      201.09277      78.226343    
    122700  -6859.9382      36.837091     -6823.1011      167.99631      201.22797      78.250592    
    122800  -6859.3498      38.019846     -6821.3299      168.01182      201.3606       78.274841    
    122900  -6857.6086      36.990503     -6820.6181      168.02092      201.48245      78.299089    
    123000  -6858.4924      36.766302     -6821.7261      168.04177      201.60786      78.323338    
    123100  -6861.3329      37.796967     -6823.5359      168.06804      201.73509      78.347587    
    123200  -6859.2051      35.683057     -6823.522       168.0924       201.85384      78.371836    
    123300  -6859.6392      37.411413     -6822.2278      168.12505      201.97792      78.396084    
    123400  -6859.034       39.729963     -6819.3041      168.15096      202.08995      78.420333    
    123500  -6857.897       39.710669     -6818.1863      168.18428      202.21632      78.444582    
    123600  -6858.397       38.160027     -6820.2369      168.21277      202.33556      78.46883     
    123700  -6860.7741      38.490023     -6822.284       168.23088      202.45224      78.493079    
    123800  -6859.6442      36.201215     -6823.443       168.2521       202.57315      78.517328    
    123900  -6860.519       37.239644     -6823.2793      168.2682       202.69273      78.541577    
    124000  -6860.065       38.360098     -6821.705       168.29777      202.82561      78.565825    
    124100  -6857.7173      37.503629     -6820.2137      168.30785      202.95281      78.590074    
    124200  -6858.9216      38.07045      -6820.8512      168.32511      203.09549      78.614323    
    124300  -6860.0228      36.363792     -6823.659       168.33366      203.22618      78.638571    
    124400  -6860.7202      36.721798     -6823.9984      168.34971      203.36779      78.66282     
    124500  -6860.8395      37.731028     -6823.1085      168.35631      203.50901      78.687069    
    124600  -6860.0028      38.619912     -6821.3829      168.35269      203.64828      78.711318    
    124700  -6858.1401      37.361987     -6820.7781      168.35518      203.79836      78.735566    
    124800  -6860.7279      37.284097     -6823.4438      168.34986      203.94098      78.759815    
    124900  -6860.9583      36.326337     -6824.6319      168.359        204.09594      78.784064    
    125000  -6860.9232      37.367804     -6823.5554      168.3589       204.24108      78.808312    
    125100  -6858.0551      36.292288     -6821.7628      168.35174      204.37699      78.832561    
    125200  -6860.2429      38.870114     -6821.3728      168.35223      204.51845      78.85681     
    125300  -6860.1096      37.927518     -6822.1821      168.35967      204.64964      78.881059    
    125400  -6861.1331      37.848281     -6823.2849      168.38213      204.78601      78.905307    
    125500  -6859.9654      36.522961     -6823.4425      168.39023      204.90431      78.929556    
    125600  -6860.3066      37.126335     -6823.1803      168.40505      205.02538      78.953805    
    125700  -6860.4713      38.207834     -6822.2635      168.42607      205.14499      78.978053    
    125800  -6858.3288      37.170724     -6821.1581      168.44915      205.25985      79.002302    
    125900  -6859.8515      39.444192     -6820.4073      168.46933      205.37161      79.026551    
    126000  -6859.976       37.558218     -6822.4178      168.48629      205.48466      79.050799    
    126100  -6860.3211      36.189407     -6824.1317      168.51054      205.60105      79.075048    
    126200  -6860.926       37.205076     -6823.7209      168.52516      205.70732      79.099297    
    126300  -6860.7221      38.419567     -6822.3025      168.54908      205.8259       79.123546    
    126400  -6859.9999      38.728693     -6821.2712      168.56269      205.94157      79.147794    
    126500  -6858.6036      38.578446     -6820.0252      168.58045      206.0583       79.172043    
    126600  -6856.9248      36.988145     -6819.9367      168.60319      206.17881      79.196292    
    126700  -6860.5935      38.461811     -6822.1317      168.61346      206.2916       79.22054     
    126800  -6859.4096      35.867037     -6823.5426      168.62823      206.41107      79.244789    
    126900  -6860.5518      37.064355     -6823.4875      168.63567      206.52856      79.269038    
    127000  -6858.7016      36.562953     -6822.1387      168.64812      206.65853      79.293287    
    127100  -6858.0862      37.838161     -6820.248       168.65526      206.78771      79.317535    
    127200  -6858.3126      37.094829     -6821.2178      168.6594       206.91279      79.341784    
    127300  -6860.2899      37.232184     -6823.0577      168.66517      207.0422       79.366033    
    127400  -6859.6922      36.537371     -6823.1549      168.66117      207.16613      79.390281    
    127500  -6859.5508      36.94474      -6822.6061      168.66499      207.29743      79.41453     
    127600  -6858.6292      36.626677     -6822.0025      168.65854      207.41718      79.438779    
    127700  -6859.4811      38.053293     -6821.4278      168.67304      207.55067      79.463028    
    127800  -6859.6724      37.944207     -6821.7282      168.67196      207.66549      79.487276    
    127900  -6859.8663      35.928438     -6823.9379      168.67625      207.78526      79.511525    
    128000  -6861.5837      37.134677     -6824.4491      168.67993      207.89516      79.535774    
    128100  -6860.8266      37.348328     -6823.4782      168.68656      208.00647      79.560022    
    128200  -6859.5994      38.595173     -6821.0042      168.70254      208.11937      79.584271    
    128300  -6857.0905      36.268439     -6820.8221      168.7091       208.21506      79.60852     
    128400  -6860.1897      38.327803     -6821.8619      168.72583      208.31722      79.632769    
    128500  -6859.8539      36.699624     -6823.1543      168.74022      208.41663      79.657017    
    128600  -6860.4232      36.617192     -6823.806       168.75617      208.51756      79.681266    
    128700  -6860.0742      37.67648      -6822.3977      168.76877      208.61473      79.705515    
    128800  -6859.1163      39.062824     -6820.0535      168.77879      208.71035      79.729763    
    128900  -6858.5261      37.287549     -6821.2386      168.79513      208.81092      79.754012    
    129000  -6860.9827      38.093424     -6822.8893      168.80219      208.90679      79.778261    
    129100  -6860.5011      37.108539     -6823.3926      168.81393      209.00835      79.80251     
    129200  -6860.0019      36.769228     -6823.2326      168.81661      209.10952      79.826758    
    129300  -6859.1605      37.580814     -6821.5797      168.82071      209.20927      79.851007    
    129400  -6858.5712      39.385872     -6819.1853      168.83024      209.31611      79.875256    
    129500  -6859.3027      38.967199     -6820.3355      168.83258      209.41993      79.899504    
    129600  -6859.5912      37.431027     -6822.1602      168.84002      209.53217      79.923753    
    129700  -6860.698       37.53225      -6823.1657      168.83227      209.63978      79.948002    
    129800  -6860.2587      36.480575     -6823.7782      168.83221      209.7545       79.972251    
    129900  -6860.411       36.609176     -6823.8018      168.83045      209.86817      79.996499    
    130000  -6859.5022      36.986435     -6822.5157      168.82212      209.97562      80.020748    
    130100  -6858.6748      38.065152     -6820.6096      168.82571      210.09151      80.044997    
    130200  -6858.0388      37.144325     -6820.8944      168.82174      210.18955      80.069245    
    130300  -6860.4646      37.441053     -6823.0236      168.83039      210.29009      80.093494    
    130400  -6861.2608      37.739073     -6823.5217      168.83144      210.38915      80.117743    
    130500  -6860.0382      36.980035     -6823.0581      168.83384      210.49361      80.141992    
    130600  -6860.129       37.7729       -6822.3561      168.83273      210.58845      80.16624     
    130700  -6859.9053      38.25305      -6821.6523      168.8357       210.6832       80.190489    
    130800  -6859.3306      39.086093     -6820.2445      168.8457       210.7822       80.214738    
    130900  -6859.435       38.672072     -6820.7629      168.84812      210.87236      80.238986    
    131000  -6858.7512      35.941639     -6822.8096      168.84872      210.95933      80.263235    
    131100  -6860.5199      36.809044     -6823.7109      168.85659      211.0483       80.287484    
    131200  -6859.5825      36.348824     -6823.2336      168.86871      211.14176      80.311732    
    131300  -6859.9893      38.767678     -6821.2216      168.87699      211.22844      80.335981    
    131400  -6857.8659      38.452821     -6819.4131      168.88224      211.30831      80.36023     
    131500  -6859.3665      38.583852     -6820.7826      168.89349      211.39244      80.384479    
    131600  -6860.0913      38.273779     -6821.8176      168.89818      211.47806      80.408727    
    131700  -6861.2078      38.318689     -6822.8891      168.90728      211.56856      80.432976    
    131800  -6860.6629      37.196989     -6823.466       168.9079       211.65698      80.457225    
    131900  -6859.7918      36.929018     -6822.8628      168.90519      211.73898      80.481473    
    132000  -6860.4547      40.050838     -6820.4038      168.91511      211.83491      80.505722    
    132100  -6858.1548      37.818808     -6820.336       168.9142       211.92312      80.529971    
    132200  -6858.4033      36.218444     -6822.1849      168.91555      212.0226       80.55422     
    132300  -6860.6512      37.54698      -6823.1043      168.90602      212.10704      80.578468    
    132400  -6859.8792      36.779897     -6823.0993      168.90638      212.19631      80.602717    
    132500  -6859.5712      37.100066     -6822.4712      168.90473      212.29057      80.626966    
    132600  -6858.4229      37.617038     -6820.8059      168.89762      212.38406      80.651214    
    132700  -6858.0692      38.953162     -6819.1161      168.89103      212.48684      80.675463    
    132800  -6859.4184      38.41045      -6821.008       168.87636      212.57678      80.699712    
    132900  -6859.716       36.881713     -6822.8343      168.8839       212.67546      80.723961    
    133000  -6860.7811      37.435586     -6823.3455      168.87914      212.75594      80.748209    
    133100  -6859.3472      35.991971     -6823.3552      168.88335      212.8498       80.772458    
    133200  -6860.2154      37.909161     -6822.3063      168.87476      212.92598      80.796707    
    133300  -6860.3599      39.593695     -6820.7662      168.88144      213.00782      80.820955    
    133400  -6857.85        37.648639     -6820.2014      168.89787      213.09488      80.845204    
    133500  -6859.8478      37.20386      -6822.6439      168.88817      213.1653       80.869453    
    133600  -6859.6769      35.624565     -6824.0523      168.89483      213.25445      80.893702    

===================================================================================
=   BAD TERMINATION OF ONE OF YOUR APPLICATION PROCESSES
=   RANK 0 PID 1067124 RUNNING AT amax
=   KILLED BY SIGNAL: 15 (Terminated)
===================================================================================

===================================================================================
=   BAD TERMINATION OF ONE OF YOUR APPLICATION PROCESSES
=   RANK 1 PID 1067126 RUNNING AT amax
=   KILLED BY SIGNAL: 15 (Terminated)
===================================================================================

===================================================================================
=   BAD TERMINATION OF ONE OF YOUR APPLICATION PROCESSES
=   RANK 2 PID 1067128 RUNNING AT amax
=   KILLED BY SIGNAL: 15 (Terminated)
===================================================================================

===================================================================================
=   BAD TERMINATION OF ONE OF YOUR APPLICATION PROCESSES
=   RANK 3 PID 1067130 RUNNING AT amax
=   KILLED BY SIGNAL: 15 (Terminated)
===================================================================================

===================================================================================
=   BAD TERMINATION OF ONE OF YOUR APPLICATION PROCESSES
=   RANK 4 PID 1067132 RUNNING AT amax
=   KILLED BY SIGNAL: 15 (Terminated)
===================================================================================

===================================================================================
=   BAD TERMINATION OF ONE OF YOUR APPLICATION PROCESSES
=   RANK 5 PID 1067134 RUNNING AT amax
=   KILLED BY SIGNAL: 15 (Terminated)
===================================================================================

===================================================================================
=   BAD TERMINATION OF ONE OF YOUR APPLICATION PROCESSES
=   RANK 6 PID 1067136 RUNNING AT amax
=   KILLED BY SIGNAL: 15 (Terminated)
===================================================================================

===================================================================================
=   BAD TERMINATION OF ONE OF YOUR APPLICATION PROCESSES
=   RANK 7 PID 1067138 RUNNING AT amax
=   KILLED BY SIGNAL: 15 (Terminated)
===================================================================================

===================================================================================
=   BAD TERMINATION OF ONE OF YOUR APPLICATION PROCESSES
=   RANK 8 PID 1067140 RUNNING AT amax
=   KILLED BY SIGNAL: 15 (Terminated)
===================================================================================

===================================================================================
=   BAD TERMINATION OF ONE OF YOUR APPLICATION PROCESSES
=   RANK 9 PID 1067142 RUNNING AT amax
=   KILLED BY SIGNAL: 15 (Terminated)
===================================================================================

===================================================================================
=   BAD TERMINATION OF ONE OF YOUR APPLICATION PROCESSES
=   RANK 10 PID 1067144 RUNNING AT amax
=   KILLED BY SIGNAL: 15 (Terminated)
===================================================================================

===================================================================================
=   BAD TERMINATION OF ONE OF YOUR APPLICATION PROCESSES
=   RANK 11 PID 1067146 RUNNING AT amax
=   KILLED BY SIGNAL: 15 (Terminated)
===================================================================================
