LAMMPS data file via write_data, version 2 Aug 2023, timestep = 0, units = metal

4440 atoms
3 atom types

-100 100 xlo xhi
-100 100 ylo yhi
-2.3312515 143.16101749999999 zlo zhi

Masses

1 12.0107
2 12.0107
3 12.0107

Atoms # atomic

9 1 -2.08242 -9.123678 0 0 0 0
10 1 -3.418975 -8.711406 0 0 0 0
11 1 -5.834811 -7.316622 0 0 0 0
12 1 -6.860127 -6.365268 0 0 0 0
13 1 -8.431547 -4.060419 0 0 0 0
14 1 -8.942547 -2.75841 0 0 0 0
36 1 -1.394784 -9.253786 1.212436 0 0 0
37 1 -4.060419 -8.431547 1.212436 0 0 0
38 1 -5.271724 -7.732199 1.212436 0 0 0
39 1 -7.316622 -5.834811 1.212436 0 0 0
40 1 -8.104535 -4.679155 1.212436 0 0 0
41 1 -9.123678 -2.08242 1.212436 0 0 0
42 1 -9.332143 -0.699347 1.212436 0 0 0
63 1 -2.08242 -9.123678 2.424871 0 0 0
64 1 -3.418975 -8.711406 2.424871 0 0 0
65 1 -5.834811 -7.316622 2.424871 0 0 0
66 1 -6.860127 -6.365268 2.424871 0 0 0
67 1 -8.431547 -4.060419 2.424871 0 0 0
68 1 -8.942547 -2.75841 2.424871 0 0 0
90 1 -1.394784 -9.253786 3.637307 0 0 0
91 1 -4.060419 -8.431547 3.637307 0 0 0
92 1 -5.271724 -7.732199 3.637307 0 0 0
93 1 -7.316622 -5.834811 3.637307 0 0 0
94 1 -8.104535 -4.679155 3.637307 0 0 0
95 1 -9.123678 -2.08242 3.637307 0 0 0
96 1 -9.332143 -0.699347 3.637307 0 0 0
117 1 -2.08242 -9.123678 4.849742 0 0 0
118 1 -3.418975 -8.711406 4.849742 0 0 0
119 1 -5.834811 -7.316622 4.849742 0 0 0
120 1 -6.860127 -6.365268 4.849742 0 0 0
121 1 -8.431547 -4.060419 4.849742 0 0 0
122 1 -8.942547 -2.75841 4.849742 0 0 0
144 1 -1.394784 -9.253786 6.062178 0 0 0
145 1 -4.060419 -8.431547 6.062178 0 0 0
146 1 -5.271724 -7.732199 6.062178 0 0 0
147 1 -7.316622 -5.834811 6.062178 0 0 0
148 1 -8.104535 -4.679155 6.062178 0 0 0
149 1 -9.123678 -2.08242 6.062178 0 0 0
150 1 -9.332143 -0.699347 6.062178 0 0 0
171 1 -2.08242 -9.123678 7.274613 0 0 0
172 1 -3.418975 -8.711406 7.274613 0 0 0
173 1 -5.834811 -7.316622 7.274613 0 0 0
174 1 -6.860127 -6.365268 7.274613 0 0 0
175 1 -8.431547 -4.060419 7.274613 0 0 0
176 1 -8.942547 -2.75841 7.274613 0 0 0
198 1 -1.394784 -9.253786 8.487049 0 0 0
199 1 -4.060419 -8.431547 8.487049 0 0 0
200 1 -5.271724 -7.732199 8.487049 0 0 0
201 1 -7.316622 -5.834811 8.487049 0 0 0
202 1 -8.104535 -4.679155 8.487049 0 0 0
203 1 -9.123678 -2.08242 8.487049 0 0 0
204 1 -9.332143 -0.699347 8.487049 0 0 0
225 1 -2.08242 -9.123678 9.699485 0 0 0
226 1 -3.418975 -8.711406 9.699485 0 0 0
227 1 -5.834811 -7.316622 9.699485 0 0 0
228 1 -6.860127 -6.365268 9.699485 0 0 0
229 1 -8.431547 -4.060419 9.699485 0 0 0
230 1 -8.942547 -2.75841 9.699485 0 0 0
253 1 -4.060419 -8.431547 10.91192 0 0 0
254 1 -5.271724 -7.732199 10.91192 0 0 0
255 1 -7.316622 -5.834811 10.91192 0 0 0
256 1 -8.104535 -4.679155 10.91192 0 0 0
257 1 -9.123678 -2.08242 10.91192 0 0 0
258 1 -9.332143 -0.699347 10.91192 0 0 0
280 1 -1.394784 -9.253786 10.91192 0 0 0
281 1 -5.834811 -7.316622 12.124356 0 0 0
282 1 -6.860127 -6.365268 12.124356 0 0 0
283 1 -8.431547 -4.060419 12.124356 0 0 0
284 1 -8.942547 -2.75841 12.124356 0 0 0
307 1 -2.08242 -9.123678 12.124356 0 0 0
308 1 -3.418975 -8.711406 12.124356 0 0 0
309 1 -7.316622 -5.834811 13.336791 0 0 0
310 1 -8.104535 -4.679155 13.336791 0 0 0
311 1 -9.123678 -2.08242 13.336791 0 0 0
312 1 -9.332143 -0.699347 13.336791 0 0 0
334 1 -1.394784 -9.253786 13.336791 0 0 0
335 1 -4.060419 -8.431547 13.336791 0 0 0
336 1 -5.271724 -7.732199 13.336791 0 0 0
337 1 -8.431547 -4.060419 14.549227 0 0 0
338 1 -8.942547 -2.75841 14.549227 0 0 0
361 1 -2.08242 -9.123678 14.549227 0 0 0
362 1 -3.418975 -8.711406 14.549227 0 0 0
363 1 -5.834811 -7.316622 14.549227 0 0 0
364 1 -6.860127 -6.365268 14.549227 0 0 0
365 1 -9.123678 -2.08242 15.761662 0 0 0
366 1 -9.332143 -0.699347 15.761662 0 0 0
388 1 -1.394784 -9.253786 15.761662 0 0 0
389 1 -4.060419 -8.431547 15.761662 0 0 0
390 1 -5.271724 -7.732199 15.761662 0 0 0
391 1 -7.316622 -5.834811 15.761662 0 0 0
392 1 -8.104535 -4.679155 15.761662 0 0 0
415 1 -2.08242 -9.123678 16.974098 0 0 0
416 1 -3.418975 -8.711406 16.974098 0 0 0
417 1 -5.834811 -7.316622 16.974098 0 0 0
418 1 -6.860127 -6.365268 16.974098 0 0 0
419 1 -8.431547 -4.060419 16.974098 0 0 0
420 1 -8.942547 -2.75841 16.974098 0 0 0
442 1 -1.394784 -9.253786 18.186533 0 0 0
443 1 -4.060419 -8.431547 18.186533 0 0 0
444 1 -5.271724 -7.732199 18.186533 0 0 0
445 1 -7.316622 -5.834811 18.186533 0 0 0
446 1 -8.104535 -4.679155 18.186533 0 0 0
447 1 -9.123678 -2.08242 18.186533 0 0 0
448 1 -9.332143 -0.699347 18.186533 0 0 0
469 1 -2.08242 -9.123678 19.398969 0 0 0
470 1 -3.418975 -8.711406 19.398969 0 0 0
471 1 -5.834811 -7.316622 19.398969 0 0 0
472 1 -6.860127 -6.365268 19.398969 0 0 0
473 1 -8.431547 -4.060419 19.398969 0 0 0
474 1 -8.942547 -2.75841 19.398969 0 0 0
496 1 -1.394784 -9.253786 20.611405 0 0 0
497 1 -4.060419 -8.431547 20.611405 0 0 0
498 1 -5.271724 -7.732199 20.611405 0 0 0
499 1 -7.316622 -5.834811 20.611405 0 0 0
500 1 -8.104535 -4.679155 20.611405 0 0 0
501 1 -9.123678 -2.08242 20.611405 0 0 0
502 1 -9.332143 -0.699347 20.611405 0 0 0
523 1 -2.08242 -9.123678 21.82384 0 0 0
524 1 -3.418975 -8.711406 21.82384 0 0 0
525 1 -5.834811 -7.316622 21.82384 0 0 0
526 1 -6.860127 -6.365268 21.82384 0 0 0
527 1 -8.431547 -4.060419 21.82384 0 0 0
528 1 -8.942547 -2.75841 21.82384 0 0 0
550 1 -1.394784 -9.253786 23.036276 0 0 0
551 1 -4.060419 -8.431547 23.036276 0 0 0
552 1 -5.271724 -7.732199 23.036276 0 0 0
553 1 -7.316622 -5.834811 23.036276 0 0 0
554 1 -8.104535 -4.679155 23.036276 0 0 0
555 1 -9.123678 -2.08242 23.036276 0 0 0
556 1 -9.332143 -0.699347 23.036276 0 0 0
577 1 -2.08242 -9.123678 24.248711 0 0 0
578 1 -3.418975 -8.711406 24.248711 0 0 0
579 1 -5.834811 -7.316622 24.248711 0 0 0
580 1 -6.860127 -6.365268 24.248711 0 0 0
581 1 -8.431547 -4.060419 24.248711 0 0 0
582 1 -8.942547 -2.75841 24.248711 0 0 0
604 1 -1.394784 -9.253786 25.461147 0 0 0
605 1 -4.060419 -8.431547 25.461147 0 0 0
606 1 -5.271724 -7.732199 25.461147 0 0 0
607 1 -7.316622 -5.834811 25.461147 0 0 0
608 1 -8.104535 -4.679155 25.461147 0 0 0
609 1 -9.123678 -2.08242 25.461147 0 0 0
610 1 -9.332143 -0.699347 25.461147 0 0 0
631 1 -2.08242 -9.123678 26.673582 0 0 0
632 1 -3.418975 -8.711406 26.673582 0 0 0
633 1 -5.834811 -7.316622 26.673582 0 0 0
634 1 -6.860127 -6.365268 26.673582 0 0 0
635 1 -8.431547 -4.060419 26.673582 0 0 0
636 1 -8.942547 -2.75841 26.673582 0 0 0
658 1 -1.394784 -9.253786 27.886018 0 0 0
659 1 -4.060419 -8.431547 27.886018 0 0 0
660 1 -5.271724 -7.732199 27.886018 0 0 0
661 1 -7.316622 -5.834811 27.886018 0 0 0
662 1 -8.104535 -4.679155 27.886018 0 0 0
663 1 -9.123678 -2.08242 27.886018 0 0 0
664 1 -9.332143 -0.699347 27.886018 0 0 0
685 1 -2.08242 -9.123678 29.098454 0 0 0
686 1 -3.418975 -8.711406 29.098454 0 0 0
687 1 -5.834811 -7.316622 29.098454 0 0 0
688 1 -6.860127 -6.365268 29.098454 0 0 0
689 1 -8.431547 -4.060419 29.098454 0 0 0
690 1 -8.942547 -2.75841 29.098454 0 0 0
712 1 -1.394784 -9.253786 30.310889 0 0 0
713 1 -4.060419 -8.431547 30.310889 0 0 0
714 1 -5.271724 -7.732199 30.310889 0 0 0
715 1 -7.316622 -5.834811 30.310889 0 0 0
716 1 -8.104535 -4.679155 30.310889 0 0 0
717 1 -9.123678 -2.08242 30.310889 0 0 0
718 1 -9.332143 -0.699347 30.310889 0 0 0
739 1 -2.08242 -9.123678 31.523325 0 0 0
740 1 -3.418975 -8.711406 31.523325 0 0 0
741 1 -5.834811 -7.316622 31.523325 0 0 0
742 1 -6.860127 -6.365268 31.523325 0 0 0
743 1 -8.431547 -4.060419 31.523325 0 0 0
744 1 -8.942547 -2.75841 31.523325 0 0 0
766 1 -1.394784 -9.253786 32.73576 0 0 0
767 1 -4.060419 -8.431547 32.73576 0 0 0
768 1 -5.271724 -7.732199 32.73576 0 0 0
769 1 -7.316622 -5.834811 32.73576 0 0 0
770 1 -8.104535 -4.679155 32.73576 0 0 0
771 1 -9.123678 -2.08242 32.73576 0 0 0
772 1 -9.332143 -0.699347 32.73576 0 0 0
793 1 -2.08242 -9.123678 33.948196 0 0 0
794 1 -3.418975 -8.711406 33.948196 0 0 0
795 1 -5.834811 -7.316622 33.948196 0 0 0
796 1 -6.860127 -6.365268 33.948196 0 0 0
797 1 -8.431547 -4.060419 33.948196 0 0 0
798 1 -8.942547 -2.75841 33.948196 0 0 0
820 1 -1.394784 -9.253786 35.160631 0 0 0
821 1 -4.060419 -8.431547 35.160631 0 0 0
822 1 -5.271724 -7.732199 35.160631 0 0 0
823 1 -7.316622 -5.834811 35.160631 0 0 0
824 1 -8.104535 -4.679155 35.160631 0 0 0
825 1 -9.123678 -2.08242 35.160631 0 0 0
826 1 -9.332143 -0.699347 35.160631 0 0 0
847 1 -2.08242 -9.123678 36.373067 0 0 0
848 1 -3.418975 -8.711406 36.373067 0 0 0
849 1 -5.834811 -7.316622 36.373067 0 0 0
850 1 -6.860127 -6.365268 36.373067 0 0 0
851 1 -8.431547 -4.060419 36.373067 0 0 0
852 1 -8.942547 -2.75841 36.373067 0 0 0
874 1 -1.394784 -9.253786 37.585503 0 0 0
875 1 -4.060419 -8.431547 37.585503 0 0 0
876 1 -5.271724 -7.732199 37.585503 0 0 0
877 1 -7.316622 -5.834811 37.585503 0 0 0
878 1 -8.104535 -4.679155 37.585503 0 0 0
879 1 -9.123678 -2.08242 37.585503 0 0 0
880 1 -9.332143 -0.699347 37.585503 0 0 0
901 1 -2.08242 -9.123678 38.797938 0 0 0
902 1 -3.418975 -8.711406 38.797938 0 0 0
903 1 -5.834811 -7.316622 38.797938 0 0 0
904 1 -6.860127 -6.365268 38.797938 0 0 0
905 1 -8.431547 -4.060419 38.797938 0 0 0
906 1 -8.942547 -2.75841 38.797938 0 0 0
928 1 -1.394784 -9.253786 40.010374 0 0 0
929 1 -4.060419 -8.431547 40.010374 0 0 0
930 1 -5.271724 -7.732199 40.010374 0 0 0
931 1 -7.316622 -5.834811 40.010374 0 0 0
932 1 -8.104535 -4.679155 40.010374 0 0 0
933 1 -9.123678 -2.08242 40.010374 0 0 0
934 1 -9.332143 -0.699347 40.010374 0 0 0
955 1 -2.08242 -9.123678 41.222809 0 0 0
956 1 -3.418975 -8.711406 41.222809 0 0 0
957 1 -5.834811 -7.316622 41.222809 0 0 0
958 1 -6.860127 -6.365268 41.222809 0 0 0
959 1 -8.431547 -4.060419 41.222809 0 0 0
960 1 -8.942547 -2.75841 41.222809 0 0 0
982 1 -1.394784 -9.253786 42.435245 0 0 0
983 1 -4.060419 -8.431547 42.435245 0 0 0
984 1 -5.271724 -7.732199 42.435245 0 0 0
985 1 -7.316622 -5.834811 42.435245 0 0 0
986 1 -8.104535 -4.679155 42.435245 0 0 0
987 1 -9.123678 -2.08242 42.435245 0 0 0
988 1 -9.332143 -0.699347 42.435245 0 0 0
1009 1 -2.08242 -9.123678 43.64768 0 0 0
1010 1 -3.418975 -8.711406 43.64768 0 0 0
1011 1 -5.834811 -7.316622 43.64768 0 0 0
1012 1 -6.860127 -6.365268 43.64768 0 0 0
1013 1 -8.431547 -4.060419 43.64768 0 0 0
1014 1 -8.942547 -2.75841 43.64768 0 0 0
1037 1 -4.060419 -8.431547 44.860116 0 0 0
1038 1 -5.271724 -7.732199 44.860116 0 0 0
1039 1 -7.316622 -5.834811 44.860116 0 0 0
1040 1 -8.104535 -4.679155 44.860116 0 0 0
1041 1 -9.123678 -2.08242 44.860116 0 0 0
1042 1 -9.332143 -0.699347 44.860116 0 0 0
1064 1 -1.394784 -9.253786 44.860116 0 0 0
1065 1 -5.834811 -7.316622 46.072551 0 0 0
1066 1 -6.860127 -6.365268 46.072551 0 0 0
1067 1 -8.431547 -4.060419 46.072551 0 0 0
1068 1 -8.942547 -2.75841 46.072551 0 0 0
1091 1 -2.08242 -9.123678 46.072551 0 0 0
1092 1 -3.418975 -8.711406 46.072551 0 0 0
1093 1 -7.316622 -5.834811 47.284987 0 0 0
1094 1 -8.104535 -4.679155 47.284987 0 0 0
1095 1 -9.123678 -2.08242 47.284987 0 0 0
1096 1 -9.332143 -0.699347 47.284987 0 0 0
1118 1 -1.394784 -9.253786 47.284987 0 0 0
1119 1 -4.060419 -8.431547 47.284987 0 0 0
1120 1 -5.271724 -7.732199 47.284987 0 0 0
1123 2 -1.719138 -0.315585 3.176333 0 0 0
1137 2 -5.088038 -0.828285 2.603933 0 0 0
1139 2 -3.842638 -1.030985 3.182233 0 0 0
1145 2 -3.488538 -2.919085 1.744933 0 0 0
1146 2 -4.740738 -2.718185 1.172133 0 0 0
1147 2 -3.037038 -2.074185 2.753733 0 0 0
1148 2 -5.546338 -1.670785 1.602633 0 0 0
1149 2 -6.257938 -0.919885 0.678533 0 0 0
1150 2 -4.652038 -3.011885 -0.181267 0 0 0
1151 2 -5.351938 -2.249685 -1.108567 0 0 0
1152 2 -6.162038 -1.200685 -0.679367 0 0 0
1153 2 -0.861338 -2.061085 1.744233 0 0 0
1154 2 -1.308238 -2.906685 0.737733 0 0 0
1155 2 -1.719238 -1.642385 2.751933 0 0 0
1156 2 -2.629938 -3.338485 0.738633 0 0 0
1157 2 -3.341738 -3.396185 -0.450967 0 0 0
1158 2 -0.708838 -2.530785 -0.455567 0 0 0
1159 2 -1.418738 -2.577585 -1.649567 0 0 0
1160 2 -2.741738 -3.011185 -1.644667 0 0 0
1162 2 -4.745738 -1.875185 -2.299867 0 0 0
1167 2 -6.063338 -0.168685 -1.602267 0 0 0
1179 2 -0.479338 -0.468085 -2.308667 0 0 0
1209 3 -0.257938 -0.919885 8.674033 0 0 0
1212 3 -0.162038 -1.200685 7.316133 0 0 0
1227 3 -0.063338 -0.168685 6.393233 0 0 0
1243 2 -1.719138 -0.315585 19.167332 0 0 0
1257 2 -5.088038 -0.828285 18.594932 0 0 0
1259 2 -3.842638 -1.030985 19.173232 0 0 0
1265 2 -3.488538 -2.919085 17.735932 0 0 0
1266 2 -4.740738 -2.718185 17.163132 0 0 0
1267 2 -3.037038 -2.074185 18.744732 0 0 0
1268 2 -5.546338 -1.670785 17.593632 0 0 0
1269 2 -6.257938 -0.919885 16.669532 0 0 0
1270 2 -4.652038 -3.011885 15.809732 0 0 0
1271 2 -5.351938 -2.249685 14.882432 0 0 0
1272 2 -6.162038 -1.200685 15.311632 0 0 0
1273 2 -0.861338 -2.061085 17.735232 0 0 0
1274 2 -1.308238 -2.906685 16.728732 0 0 0
1275 2 -1.719238 -1.642385 18.742932 0 0 0
1276 2 -2.629938 -3.338485 16.729632 0 0 0
1277 2 -3.341738 -3.396185 15.540032 0 0 0
1278 2 -0.708838 -2.530785 15.535432 0 0 0
1279 2 -1.418738 -2.577585 14.341432 0 0 0
1280 2 -2.741738 -3.011185 14.346332 0 0 0
1281 2 -5.180538 -0.584085 13.401532 0 0 0
1282 2 -4.745738 -1.875185 13.691132 0 0 0
1283 2 -3.436238 -2.252685 13.414932 0 0 0
1287 2 -6.063338 -0.168685 14.388732 0 0 0
1297 2 -2.551638 -1.355285 12.833332 0 0 0
1298 2 -1.299438 -1.554285 13.408632 0 0 0
1299 2 -0.479338 -0.468085 13.682332 0 0 0
1300 2 -2.975938 -0.070285 12.540932 0 0 0
1329 3 -0.257938 -0.919885 24.665032 0 0 0
1332 3 -0.162038 -1.200685 23.307132 0 0 0
1347 3 -0.063338 -0.168685 22.384232 0 0 0
1363 2 -1.719138 -0.315585 35.158332 0 0 0
1377 2 -5.088038 -0.828285 34.585932 0 0 0
1379 2 -3.842638 -1.030985 35.164232 0 0 0
1385 2 -3.488538 -2.919085 33.726932 0 0 0
1386 2 -4.740738 -2.718185 33.154132 0 0 0
1387 2 -3.037038 -2.074185 34.735732 0 0 0
1388 2 -5.546338 -1.670785 33.584632 0 0 0
1389 2 -6.257938 -0.919885 32.660532 0 0 0
1390 2 -4.652038 -3.011885 31.800732 0 0 0
1391 2 -5.351938 -2.249685 30.873432 0 0 0
1392 2 -6.162038 -1.200685 31.302632 0 0 0
1393 2 -0.861338 -2.061085 33.726232 0 0 0
1394 2 -1.308238 -2.906685 32.719732 0 0 0
1395 2 -1.719238 -1.642385 34.733932 0 0 0
1396 2 -2.629938 -3.338485 32.720632 0 0 0
1397 2 -3.341738 -3.396185 31.531032 0 0 0
1398 2 -0.708838 -2.530785 31.526432 0 0 0
1399 2 -1.418738 -2.577585 30.332432 0 0 0
1400 2 -2.741738 -3.011185 30.337332 0 0 0
1401 2 -5.180538 -0.584085 29.392532 0 0 0
1402 2 -4.745738 -1.875185 29.682132 0 0 0
1403 2 -3.436238 -2.252685 29.405932 0 0 0
1407 2 -6.063338 -0.168685 30.379732 0 0 0
1417 2 -2.551638 -1.355285 28.824332 0 0 0
1418 2 -1.299438 -1.554285 29.399632 0 0 0
1419 2 -0.479338 -0.468085 29.673332 0 0 0
1420 2 -2.975938 -0.070285 28.531932 0 0 0
1449 3 -0.257938 -0.919885 40.656031 0 0 0
1452 3 -0.162038 -1.200685 39.298131 0 0 0
1467 3 -0.063338 -0.168685 38.375231 0 0 0
1489 1 -2.08242 -9.123678 48.497423 0 0 0
1490 1 -3.418975 -8.711406 48.497423 0 0 0
1491 1 -5.834811 -7.316622 48.497423 0 0 0
1492 1 -6.860127 -6.365268 48.497423 0 0 0
1493 1 -8.431547 -4.060419 48.497423 0 0 0
1494 1 -8.942547 -2.75841 48.497423 0 0 0
1516 1 -1.394784 -9.253786 49.709858999999994 0 0 0
1517 1 -4.060419 -8.431547 49.709858999999994 0 0 0
1518 1 -5.271724 -7.732199 49.709858999999994 0 0 0
1519 1 -7.316622 -5.834811 49.709858999999994 0 0 0
1520 1 -8.104535 -4.679155 49.709858999999994 0 0 0
1521 1 -9.123678 -2.08242 49.709858999999994 0 0 0
1522 1 -9.332143 -0.699347 49.709858999999994 0 0 0
1543 1 -2.08242 -9.123678 50.922294 0 0 0
1544 1 -3.418975 -8.711406 50.922294 0 0 0
1545 1 -5.834811 -7.316622 50.922294 0 0 0
1546 1 -6.860127 -6.365268 50.922294 0 0 0
1547 1 -8.431547 -4.060419 50.922294 0 0 0
1548 1 -8.942547 -2.75841 50.922294 0 0 0
1570 1 -1.394784 -9.253786 52.13473 0 0 0
1571 1 -4.060419 -8.431547 52.13473 0 0 0
1572 1 -5.271724 -7.732199 52.13473 0 0 0
1573 1 -7.316622 -5.834811 52.13473 0 0 0
1574 1 -8.104535 -4.679155 52.13473 0 0 0
1575 1 -9.123678 -2.08242 52.13473 0 0 0
1576 1 -9.332143 -0.699347 52.13473 0 0 0
1597 1 -2.08242 -9.123678 53.347165 0 0 0
1598 1 -3.418975 -8.711406 53.347165 0 0 0
1599 1 -5.834811 -7.316622 53.347165 0 0 0
1600 1 -6.860127 -6.365268 53.347165 0 0 0
1601 1 -8.431547 -4.060419 53.347165 0 0 0
1602 1 -8.942547 -2.75841 53.347165 0 0 0
1624 1 -1.394784 -9.253786 54.559601 0 0 0
1625 1 -4.060419 -8.431547 54.559601 0 0 0
1626 1 -5.271724 -7.732199 54.559601 0 0 0
1627 1 -7.316622 -5.834811 54.559601 0 0 0
1628 1 -8.104535 -4.679155 54.559601 0 0 0
1629 1 -9.123678 -2.08242 54.559601 0 0 0
1630 1 -9.332143 -0.699347 54.559601 0 0 0
1651 1 -2.08242 -9.123678 55.772036 0 0 0
1652 1 -3.418975 -8.711406 55.772036 0 0 0
1653 1 -5.834811 -7.316622 55.772036 0 0 0
1654 1 -6.860127 -6.365268 55.772036 0 0 0
1655 1 -8.431547 -4.060419 55.772036 0 0 0
1656 1 -8.942547 -2.75841 55.772036 0 0 0
1678 1 -1.394784 -9.253786 56.984472 0 0 0
1679 1 -4.060419 -8.431547 56.984472 0 0 0
1680 1 -5.271724 -7.732199 56.984472 0 0 0
1681 1 -7.316622 -5.834811 56.984472 0 0 0
1682 1 -8.104535 -4.679155 56.984472 0 0 0
1683 1 -9.123678 -2.08242 56.984472 0 0 0
1684 1 -9.332143 -0.699347 56.984472 0 0 0
1705 1 -2.08242 -9.123678 58.19690799999999 0 0 0
1706 1 -3.418975 -8.711406 58.19690799999999 0 0 0
1707 1 -5.834811 -7.316622 58.19690799999999 0 0 0
1708 1 -6.860127 -6.365268 58.19690799999999 0 0 0
1709 1 -8.431547 -4.060419 58.19690799999999 0 0 0
1710 1 -8.942547 -2.75841 58.19690799999999 0 0 0
1733 1 -4.060419 -8.431547 59.409343 0 0 0
1734 1 -5.271724 -7.732199 59.409343 0 0 0
1735 1 -7.316622 -5.834811 59.409343 0 0 0
1736 1 -8.104535 -4.679155 59.409343 0 0 0
1737 1 -9.123678 -2.08242 59.409343 0 0 0
1738 1 -9.332143 -0.699347 59.409343 0 0 0
1760 1 -1.394784 -9.253786 59.409343 0 0 0
1761 1 -5.834811 -7.316622 60.621779 0 0 0
1762 1 -6.860127 -6.365268 60.621779 0 0 0
1763 1 -8.431547 -4.060419 60.621779 0 0 0
1764 1 -8.942547 -2.75841 60.621779 0 0 0
1787 1 -2.08242 -9.123678 60.621779 0 0 0
1788 1 -3.418975 -8.711406 60.621779 0 0 0
1789 1 -7.316622 -5.834811 61.834213999999996 0 0 0
1790 1 -8.104535 -4.679155 61.834213999999996 0 0 0
1791 1 -9.123678 -2.08242 61.834213999999996 0 0 0
1792 1 -9.332143 -0.699347 61.834213999999996 0 0 0
1814 1 -1.394784 -9.253786 61.834213999999996 0 0 0
1815 1 -4.060419 -8.431547 61.834213999999996 0 0 0
1816 1 -5.271724 -7.732199 61.834213999999996 0 0 0
1817 1 -8.431547 -4.060419 63.04665 0 0 0
1818 1 -8.942547 -2.75841 63.04665 0 0 0
1841 1 -2.08242 -9.123678 63.04665 0 0 0
1842 1 -3.418975 -8.711406 63.04665 0 0 0
1843 1 -5.834811 -7.316622 63.04665 0 0 0
1844 1 -6.860127 -6.365268 63.04665 0 0 0
1845 1 -9.123678 -2.08242 64.259085 0 0 0
1846 1 -9.332143 -0.699347 64.259085 0 0 0
1868 1 -1.394784 -9.253786 64.259085 0 0 0
1869 1 -4.060419 -8.431547 64.259085 0 0 0
1870 1 -5.271724 -7.732199 64.259085 0 0 0
1871 1 -7.316622 -5.834811 64.259085 0 0 0
1872 1 -8.104535 -4.679155 64.259085 0 0 0
1895 1 -2.08242 -9.123678 65.471521 0 0 0
1896 1 -3.418975 -8.711406 65.471521 0 0 0
1897 1 -5.834811 -7.316622 65.471521 0 0 0
1898 1 -6.860127 -6.365268 65.471521 0 0 0
1899 1 -8.431547 -4.060419 65.471521 0 0 0
1900 1 -8.942547 -2.75841 65.471521 0 0 0
1922 1 -1.394784 -9.253786 66.683956 0 0 0
1923 1 -4.060419 -8.431547 66.683956 0 0 0
1924 1 -5.271724 -7.732199 66.683956 0 0 0
1925 1 -7.316622 -5.834811 66.683956 0 0 0
1926 1 -8.104535 -4.679155 66.683956 0 0 0
1927 1 -9.123678 -2.08242 66.683956 0 0 0
1928 1 -9.332143 -0.699347 66.683956 0 0 0
1949 1 -2.08242 -9.123678 67.89639199999999 0 0 0
1950 1 -3.418975 -8.711406 67.89639199999999 0 0 0
1951 1 -5.834811 -7.316622 67.89639199999999 0 0 0
1952 1 -6.860127 -6.365268 67.89639199999999 0 0 0
1953 1 -8.431547 -4.060419 67.89639199999999 0 0 0
1954 1 -8.942547 -2.75841 67.89639199999999 0 0 0
1976 1 -1.394784 -9.253786 69.108828 0 0 0
1977 1 -4.060419 -8.431547 69.108828 0 0 0
1978 1 -5.271724 -7.732199 69.108828 0 0 0
1979 1 -7.316622 -5.834811 69.108828 0 0 0
1980 1 -8.104535 -4.679155 69.108828 0 0 0
1981 1 -9.123678 -2.08242 69.108828 0 0 0
1982 1 -9.332143 -0.699347 69.108828 0 0 0
2003 1 -2.08242 -9.123678 70.321263 0 0 0
2004 1 -3.418975 -8.711406 70.321263 0 0 0
2005 1 -5.834811 -7.316622 70.321263 0 0 0
2006 1 -6.860127 -6.365268 70.321263 0 0 0
2007 1 -8.431547 -4.060419 70.321263 0 0 0
2008 1 -8.942547 -2.75841 70.321263 0 0 0
2603 2 -1.719138 -0.315585 51.673756 0 0 0
2617 2 -5.088038 -0.828285 51.101355999999996 0 0 0
2619 2 -3.842638 -1.030985 51.679655999999994 0 0 0
2625 2 -3.488538 -2.919085 50.242356 0 0 0
2626 2 -4.740738 -2.718185 49.669556 0 0 0
2627 2 -3.037038 -2.074185 51.251155999999995 0 0 0
2628 2 -5.546338 -1.670785 50.100055999999995 0 0 0
2629 2 -6.257938 -0.919885 49.175956 0 0 0
2630 2 -4.652038 -3.011885 48.316156 0 0 0
2631 2 -5.351938 -2.249685 47.388856 0 0 0
2632 2 -6.162038 -1.200685 47.818056 0 0 0
2633 2 -0.861338 -2.061085 50.241656 0 0 0
2634 2 -1.308238 -2.906685 49.235155999999996 0 0 0
2635 2 -1.719238 -1.642385 51.249356 0 0 0
2636 2 -2.629938 -3.338485 49.236056 0 0 0
2637 2 -3.341738 -3.396185 48.046456 0 0 0
2638 2 -0.708838 -2.530785 48.041855999999996 0 0 0
2639 2 -1.418738 -2.577585 46.847856 0 0 0
2640 2 -2.741738 -3.011185 46.852756 0 0 0
2641 2 -5.180538 -0.584085 45.907956 0 0 0
2642 2 -4.745738 -1.875185 46.197556 0 0 0
2643 2 -3.436238 -2.252685 45.921355999999996 0 0 0
2647 2 -6.063338 -0.168685 46.895156 0 0 0
2657 2 -2.551638 -1.355285 45.339755999999994 0 0 0
2658 2 -1.299438 -1.554285 45.915056 0 0 0
2659 2 -0.479338 -0.468085 46.188756 0 0 0
2660 2 -2.975938 -0.070285 45.047356 0 0 0
2689 3 -0.257938 -0.919885 57.171456 0 0 0
2692 3 -0.162038 -1.200685 55.813556 0 0 0
2707 3 -0.063338 -0.168685 54.890656 0 0 0
2723 2 -1.719138 -0.315585 67.664755 0 0 0
2737 2 -5.088038 -0.828285 67.092355 0 0 0
2739 2 -3.842638 -1.030985 67.670655 0 0 0
2745 2 -3.488538 -2.919085 66.23335499999999 0 0 0
2746 2 -4.740738 -2.718185 65.660555 0 0 0
2747 2 -3.037038 -2.074185 67.242155 0 0 0
2748 2 -5.546338 -1.670785 66.091055 0 0 0
2749 2 -6.257938 -0.919885 65.166955 0 0 0
2750 2 -4.652038 -3.011885 64.307155 0 0 0
2751 2 -5.351938 -2.249685 63.379855 0 0 0
2752 2 -6.162038 -1.200685 63.809055 0 0 0
2753 2 -0.861338 -2.061085 66.232655 0 0 0
2754 2 -1.308238 -2.906685 65.226155 0 0 0
2755 2 -1.719238 -1.642385 67.240355 0 0 0
2756 2 -2.629938 -3.338485 65.227055 0 0 0
2757 2 -3.341738 -3.396185 64.037455 0 0 0
2758 2 -0.708838 -2.530785 64.032855 0 0 0
2759 2 -1.418738 -2.577585 62.838854999999995 0 0 0
2760 2 -2.741738 -3.011185 62.843755 0 0 0
2761 2 -5.180538 -0.584085 61.898955 0 0 0
2762 2 -4.745738 -1.875185 62.188554999999994 0 0 0
2763 2 -3.436238 -2.252685 61.912355 0 0 0
2767 2 -6.063338 -0.168685 62.886154999999995 0 0 0
2777 2 -2.551638 -1.355285 61.330754999999996 0 0 0
2778 2 -1.299438 -1.554285 61.906054999999995 0 0 0
2779 2 -0.479338 -0.468085 62.179755 0 0 0
2780 2 -2.975938 -0.070285 61.038354999999996 0 0 0
4053 1 -7.316622 -5.834811 -1.2124359999999967 0 0 1
4054 1 -8.104535 -4.679155 -1.2124359999999967 0 0 1
4055 1 -9.123678 -2.08242 -1.2124359999999967 0 0 1
4056 1 -9.332143 -0.699347 -1.2124359999999967 0 0 1
4078 1 -1.394784 -9.253786 -1.2124359999999967 0 0 1
4079 1 -4.060419 -8.431547 -1.2124359999999967 0 0 1
4080 1 -5.271724 -7.732199 -1.2124359999999967 0 0 1
1161 2 -5.180538 -0.584085 142.902802 0 0 -1
1163 2 -3.436238 -2.252685 142.916202 0 0 -1
1177 2 -2.551638 -1.355285 142.334602 0 0 -1
1178 2 -1.299438 -1.554285 142.909902 0 0 -1
1180 2 -2.975938 -0.070285 142.042202 0 0 -1
2030 1 -1.394784 -9.253786 71.533699 0 0 0
2031 1 -4.060419 -8.431547 71.533699 0 0 0
2032 1 -5.271724 -7.732199 71.533699 0 0 0
2033 1 -7.316622 -5.834811 71.533699 0 0 0
2034 1 -8.104535 -4.679155 71.533699 0 0 0
2035 1 -9.123678 -2.08242 71.533699 0 0 0
2036 1 -9.332143 -0.699347 71.533699 0 0 0
2057 1 -2.08242 -9.123678 72.746134 0 0 0
2058 1 -3.418975 -8.711406 72.746134 0 0 0
2059 1 -5.834811 -7.316622 72.746134 0 0 0
2060 1 -6.860127 -6.365268 72.746134 0 0 0
2061 1 -8.431547 -4.060419 72.746134 0 0 0
2062 1 -8.942547 -2.75841 72.746134 0 0 0
2084 1 -1.394784 -9.253786 73.95857 0 0 0
2085 1 -4.060419 -8.431547 73.95857 0 0 0
2086 1 -5.271724 -7.732199 73.95857 0 0 0
2087 1 -7.316622 -5.834811 73.95857 0 0 0
2088 1 -8.104535 -4.679155 73.95857 0 0 0
2089 1 -9.123678 -2.08242 73.95857 0 0 0
2090 1 -9.332143 -0.699347 73.95857 0 0 0
2111 1 -2.08242 -9.123678 75.171005 0 0 0
2112 1 -3.418975 -8.711406 75.171005 0 0 0
2113 1 -5.834811 -7.316622 75.171005 0 0 0
2114 1 -6.860127 -6.365268 75.171005 0 0 0
2115 1 -8.431547 -4.060419 75.171005 0 0 0
2116 1 -8.942547 -2.75841 75.171005 0 0 0
2138 1 -1.394784 -9.253786 76.383441 0 0 0
2139 1 -4.060419 -8.431547 76.383441 0 0 0
2140 1 -5.271724 -7.732199 76.383441 0 0 0
2141 1 -7.316622 -5.834811 76.383441 0 0 0
2142 1 -8.104535 -4.679155 76.383441 0 0 0
2143 1 -9.123678 -2.08242 76.383441 0 0 0
2144 1 -9.332143 -0.699347 76.383441 0 0 0
2165 1 -2.08242 -9.123678 77.595877 0 0 0
2166 1 -3.418975 -8.711406 77.595877 0 0 0
2167 1 -5.834811 -7.316622 77.595877 0 0 0
2168 1 -6.860127 -6.365268 77.595877 0 0 0
2169 1 -8.431547 -4.060419 77.595877 0 0 0
2170 1 -8.942547 -2.75841 77.595877 0 0 0
2192 1 -1.394784 -9.253786 78.808312 0 0 0
2193 1 -4.060419 -8.431547 78.808312 0 0 0
2194 1 -5.271724 -7.732199 78.808312 0 0 0
2195 1 -7.316622 -5.834811 78.808312 0 0 0
2196 1 -8.104535 -4.679155 78.808312 0 0 0
2197 1 -9.123678 -2.08242 78.808312 0 0 0
2198 1 -9.332143 -0.699347 78.808312 0 0 0
2219 1 -2.08242 -9.123678 80.020748 0 0 0
2220 1 -3.418975 -8.711406 80.020748 0 0 0
2221 1 -5.834811 -7.316622 80.020748 0 0 0
2222 1 -6.860127 -6.365268 80.020748 0 0 0
2223 1 -8.431547 -4.060419 80.020748 0 0 0
2224 1 -8.942547 -2.75841 80.020748 0 0 0
2246 1 -1.394784 -9.253786 81.233183 0 0 0
2247 1 -4.060419 -8.431547 81.233183 0 0 0
2248 1 -5.271724 -7.732199 81.233183 0 0 0
2249 1 -7.316622 -5.834811 81.233183 0 0 0
2250 1 -8.104535 -4.679155 81.233183 0 0 0
2251 1 -9.123678 -2.08242 81.233183 0 0 0
2252 1 -9.332143 -0.699347 81.233183 0 0 0
2273 1 -2.08242 -9.123678 82.445619 0 0 0
2274 1 -3.418975 -8.711406 82.445619 0 0 0
2275 1 -5.834811 -7.316622 82.445619 0 0 0
2276 1 -6.860127 -6.365268 82.445619 0 0 0
2277 1 -8.431547 -4.060419 82.445619 0 0 0
2278 1 -8.942547 -2.75841 82.445619 0 0 0
2300 1 -1.394784 -9.253786 83.65805399999999 0 0 0
2301 1 -4.060419 -8.431547 83.65805399999999 0 0 0
2302 1 -5.271724 -7.732199 83.65805399999999 0 0 0
2303 1 -7.316622 -5.834811 83.65805399999999 0 0 0
2304 1 -8.104535 -4.679155 83.65805399999999 0 0 0
2305 1 -9.123678 -2.08242 83.65805399999999 0 0 0
2306 1 -9.332143 -0.699347 83.65805399999999 0 0 0
2327 1 -2.08242 -9.123678 84.87048999999999 0 0 0
2328 1 -3.418975 -8.711406 84.87048999999999 0 0 0
2329 1 -5.834811 -7.316622 84.87048999999999 0 0 0
2330 1 -6.860127 -6.365268 84.87048999999999 0 0 0
2331 1 -8.431547 -4.060419 84.87048999999999 0 0 0
2332 1 -8.942547 -2.75841 84.87048999999999 0 0 0
2354 1 -1.394784 -9.253786 86.082926 0 0 0
2355 1 -4.060419 -8.431547 86.082926 0 0 0
2356 1 -5.271724 -7.732199 86.082926 0 0 0
2357 1 -7.316622 -5.834811 86.082926 0 0 0
2358 1 -8.104535 -4.679155 86.082926 0 0 0
2359 1 -9.123678 -2.08242 86.082926 0 0 0
2360 1 -9.332143 -0.699347 86.082926 0 0 0
2381 1 -2.08242 -9.123678 87.295361 0 0 0
2382 1 -3.418975 -8.711406 87.295361 0 0 0
2383 1 -5.834811 -7.316622 87.295361 0 0 0
2384 1 -6.860127 -6.365268 87.295361 0 0 0
2385 1 -8.431547 -4.060419 87.295361 0 0 0
2386 1 -8.942547 -2.75841 87.295361 0 0 0
2408 1 -1.394784 -9.253786 88.507797 0 0 0
2409 1 -4.060419 -8.431547 88.507797 0 0 0
2410 1 -5.271724 -7.732199 88.507797 0 0 0
2411 1 -7.316622 -5.834811 88.507797 0 0 0
2412 1 -8.104535 -4.679155 88.507797 0 0 0
2413 1 -9.123678 -2.08242 88.507797 0 0 0
2414 1 -9.332143 -0.699347 88.507797 0 0 0
2435 1 -2.08242 -9.123678 89.720232 0 0 0
2436 1 -3.418975 -8.711406 89.720232 0 0 0
2437 1 -5.834811 -7.316622 89.720232 0 0 0
2438 1 -6.860127 -6.365268 89.720232 0 0 0
2439 1 -8.431547 -4.060419 89.720232 0 0 0
2440 1 -8.942547 -2.75841 89.720232 0 0 0
2462 1 -1.394784 -9.253786 90.932668 0 0 0
2463 1 -4.060419 -8.431547 90.932668 0 0 0
2464 1 -5.271724 -7.732199 90.932668 0 0 0
2465 1 -7.316622 -5.834811 90.932668 0 0 0
2466 1 -8.104535 -4.679155 90.932668 0 0 0
2467 1 -9.123678 -2.08242 90.932668 0 0 0
2468 1 -9.332143 -0.699347 90.932668 0 0 0
2489 1 -2.08242 -9.123678 92.145103 0 0 0
2490 1 -3.418975 -8.711406 92.145103 0 0 0
2491 1 -5.834811 -7.316622 92.145103 0 0 0
2492 1 -6.860127 -6.365268 92.145103 0 0 0
2493 1 -8.431547 -4.060419 92.145103 0 0 0
2494 1 -8.942547 -2.75841 92.145103 0 0 0
2517 1 -4.060419 -8.431547 93.357539 0 0 0
2518 1 -5.271724 -7.732199 93.357539 0 0 0
2519 1 -7.316622 -5.834811 93.357539 0 0 0
2520 1 -8.104535 -4.679155 93.357539 0 0 0
2521 1 -9.123678 -2.08242 93.357539 0 0 0
2522 1 -9.332143 -0.699347 93.357539 0 0 0
2544 1 -1.394784 -9.253786 93.357539 0 0 0
2545 1 -5.834811 -7.316622 94.569974 0 0 0
2546 1 -6.860127 -6.365268 94.569974 0 0 0
2547 1 -8.431547 -4.060419 94.569974 0 0 0
2548 1 -8.942547 -2.75841 94.569974 0 0 0
2571 1 -2.08242 -9.123678 94.569974 0 0 0
2572 1 -3.418975 -8.711406 94.569974 0 0 0
2573 1 -7.316622 -5.834811 95.78241 0 0 0
2574 1 -8.104535 -4.679155 95.78241 0 0 0
2575 1 -9.123678 -2.08242 95.78241 0 0 0
2576 1 -9.332143 -0.699347 95.78241 0 0 0
2598 1 -1.394784 -9.253786 95.78241 0 0 0
2599 1 -4.060419 -8.431547 95.78241 0 0 0
2600 1 -5.271724 -7.732199 95.78241 0 0 0
2809 3 -0.257938 -0.919885 73.162455 0 0 0
2812 3 -0.162038 -1.200685 71.804555 0 0 0
2827 3 -0.063338 -0.168685 70.881655 0 0 0
2843 2 -1.719138 -0.315585 83.655755 0 0 0
2857 2 -5.088038 -0.828285 83.083355 0 0 0
2859 2 -3.842638 -1.030985 83.661655 0 0 0
2865 2 -3.488538 -2.919085 82.224355 0 0 0
2866 2 -4.740738 -2.718185 81.651555 0 0 0
2867 2 -3.037038 -2.074185 83.233155 0 0 0
2868 2 -5.546338 -1.670785 82.082055 0 0 0
2869 2 -6.257938 -0.919885 81.157955 0 0 0
2870 2 -4.652038 -3.011885 80.298155 0 0 0
2871 2 -5.351938 -2.249685 79.370855 0 0 0
2872 2 -6.162038 -1.200685 79.800055 0 0 0
2873 2 -0.861338 -2.061085 82.22365500000001 0 0 0
2874 2 -1.308238 -2.906685 81.21715499999999 0 0 0
2875 2 -1.719238 -1.642385 83.23135500000001 0 0 0