LAMMPS (2 Aug 2023 - Update 3)
OMP_NUM_THREADS environment is not set. Defaulting to 1 thread. (src/comm.cpp:98)
  using 1 OpenMP thread(s) per MPI task
Reading data file ...
  orthogonal box = (-100 -100 -2.331251) to (100 100 38.891558)
  3 by 4 by 1 MPI processor grid
  reading atoms ...
  920 atoms
  read_data CPU = 0.004 seconds
Replication is creating a 1x1x9 = 9 times larger system...
  orthogonal box = (-100 -100 -2.331251) to (100 100 368.67403)
  2 by 2 by 3 MPI processor grid
  8280 atoms
  replicate CPU = 0.001 seconds
System init for write_data ...
WARNING: Communication cutoff is 0.0. No ghost atoms will be generated. Atoms may get lost. (src/comm_brick.cpp:210)
Reading airebo potential file CH.airebo with DATE: 2011-10-25
Reading airebo potential file CH.airebo with DATE: 2011-10-25
Neighbor list info ...
  update: every = 1 steps, delay = 0 steps, check = yes
  max neighbors/atom: 2000, page size: 100000
  master list distance cutoff = 13.2
  ghost atom cutoff = 13.2
  binsize = 6.6, bins = 31 31 57
  5 neighbor lists, perpetual/occasional/extra = 5 0 0
  (1) pair airebo, perpetual, skip from (4)
      attributes: full, newton on, ghost
      pair build: skip/ghost
      stencil: none
      bin: none
  (2) pair airebo, perpetual, skip from (4)
      attributes: full, newton on, ghost
      pair build: skip/ghost
      stencil: none
      bin: none
  (3) pair lj/cut, perpetual, skip from (5)
      attributes: half, newton on, cut 13
      pair build: skip
      stencil: none
      bin: none
  (4) neighbor class addition, perpetual
      attributes: full, newton on, ghost
      pair build: full/bin/ghost
      stencil: full/ghost/bin/3d
      bin: standard
  (5) neighbor class addition, perpetual
      attributes: half, newton on, cut 13
      pair build: half/bin/atomonly/newton
      stencil: half/bin/3d
      bin: standard
Setting up sd style minimization ...
  Unit style    : metal
  Current step  : 0
Per MPI rank memory allocation (min/avg/max) = 10.62 | 10.9 | 11 Mbytes
   Step          Temp          E_pair         E_mol          TotEng         Press     
         0   0             -60033.514      0             -60033.514      322.36972    
         4   0             -60191.648      0             -60191.648      67.774962    
Loop time of 0.115917 on 12 procs for 4 steps with 8280 atoms

97.0% CPU use with 12 MPI tasks x 1 OpenMP threads

Minimization stats:
  Stopping criterion = energy tolerance
  Energy initial, next-to-last, final = 
     -60033.5144009468  -60188.0079867065  -60191.6479858684
  Force two-norm initial, final = 130.89275 19.929861
  Force max component initial, final = 3.4211508 0.48894053
  Final line search alpha, max atom move = 0.14095332 0.068917792
  Iterations, force evaluations = 4 8

MPI task timing breakdown:
Section |  min time  |  avg time  |  max time  |%varavg| %total
---------------------------------------------------------------
Pair    | 0.08245    | 0.10243    | 0.1145     |   3.1 | 88.37
Neigh   | 0          | 0          | 0          |   0.0 |  0.00
Comm    | 0.00098856 | 0.012962   | 0.03295    |   8.7 | 11.18
Output  | 0          | 0          | 0          |   0.0 |  0.00
Modify  | 0          | 0          | 0          |   0.0 |  0.00
Other   |            | 0.0005216  |            |       |  0.45

Nlocal:            690 ave         741 max         639 min
Histogram: 3 0 0 0 0 6 0 0 0 3
Nghost:           2644 ave        2695 max        2593 min
Histogram: 3 0 0 0 0 6 0 0 0 3
Neighs:              0 ave           0 max           0 min
Histogram: 12 0 0 0 0 0 0 0 0 0

Total # of neighbors = 0
Ave neighs/atom = 0
Neighbor list builds = 0
Dangerous builds = 0
Setting up Verlet run ...
  Unit style    : metal
  Current step  : 4
  Time step     : 0.001
Per MPI rank memory allocation (min/avg/max) = 11.62 | 11.62 | 11.63 Mbytes
   Step          Temp          E_pair         E_mol          TotEng         Press          Volume    
         4   300           -60191.648      0             -59870.605      90.88192       14840211     
Loop time of 3.94424e-05 on 12 procs for 0 steps with 8280 atoms

75.6% CPU use with 12 MPI tasks x 1 OpenMP threads

MPI task timing breakdown:
Section |  min time  |  avg time  |  max time  |%varavg| %total
---------------------------------------------------------------
Pair    | 0          | 0          | 0          |   0.0 |  0.00
Neigh   | 0          | 0          | 0          |   0.0 |  0.00
Comm    | 0          | 0          | 0          |   0.0 |  0.00
Output  | 0          | 0          | 0          |   0.0 |  0.00
Modify  | 0          | 0          | 0          |   0.0 |  0.00
Other   |            | 3.944e-05  |            |       |100.00

Nlocal:            690 ave         690 max         690 min
Histogram: 12 0 0 0 0 0 0 0 0 0
Nghost:           2644 ave        2644 max        2644 min
Histogram: 12 0 0 0 0 0 0 0 0 0
Neighs:              0 ave           0 max           0 min
Histogram: 12 0 0 0 0 0 0 0 0 0

Total # of neighbors = 0
Ave neighs/atom = 0
Neighbor list builds = 0
Dangerous builds = 0
WARNING: New thermo_style command, previous thermo_modify settings will be lost (src/output.cpp:903)
WARNING: Dump 2 includes no atom IDs and is not sorted by ID. This may complicate post-processing tasks or visualization (src/dump.cpp:221)
Setting up Verlet run ...
  Unit style    : metal
  Current step  : 0
  Time step     : 0.001
Per MPI rank memory allocation (min/avg/max) = 13.12 | 13.12 | 13.13 Mbytes
   Step         PotEng         KinEng         TotEng           Lx             Ly             Lz      
         0  -60191.648      321.04342     -59870.605      200            200            371.00528    
       100  -60004.693      158.77225     -59845.921      200.00327      200.00546      371.19078    
       200  -60018.804      206.7632      -59812.041      199.99803      200.00454      371.37629    
       300  -59984.985      213.42649     -59771.558      199.99732      200.01047      371.56179    
       400  -59962.599      234.94367     -59727.656      199.99308      200.01308      371.74729    
       500  -59945.218      263.29149     -59681.926      199.98944      200.01523      371.93279    
       600  -59926.291      289.36381     -59636.927      199.99133      200.01892      372.1183     
       700  -59908.967      313.15752     -59595.809      199.98648      200.01399      372.3038     
       800  -59888.689      325.98932     -59562.7        199.99213      200.01869      372.4893     
       900  -59885.927      342.23567     -59543.692      199.9854       200.01307      372.6748     
      1000  -59878.333      333.46576     -59544.868      199.98729      200.01959      372.86031    
      1100  -59887.136      325.8074      -59561.329      199.9779       200.01794      373.04581    
      1200  -59889.659      314.78522     -59574.874      199.97612      200.02462      373.23131    
      1300  -59891.682      316.61735     -59575.065      199.96879      200.02297      373.41682    
      1400  -59878.262      317.34676     -59560.915      199.96854      200.02512      373.60232    
      1500  -59871.916      325.74512     -59546.171      199.9646       200.02119      373.78782    
      1600  -59861.66       319.66056     -59542          199.96458      200.02239      373.97332    
      1700  -59875.238      324.77065     -59550.468      199.9573       200.01885      374.15883    
      1800  -59870.335      309.57803     -59560.756      199.95534      200.02411      374.34433    
      1900  -59879.152      316.56162     -59562.591      199.94405      200.02069      374.52983    
      2000  -59868.053      314.31576     -59553.737      199.94359      200.02708      374.71533    
      2100  -59865.529      324.59776     -59540.931      199.93321      200.01952      374.90084    
      2200  -59858.453      324.50258     -59533.95       199.93557      200.02284      375.08634    
      2300  -59862.801      325.26335     -59537.537      199.9264       200.01474      375.27184    
      2400  -59862.879      317.23103     -59545.648      199.92596      200.01665      375.45734    
      2500  -59866.628      317.66184     -59548.966      199.91585      200.01243      375.64285    
      2600  -59866.206      322.82896     -59543.377      199.91043      200.01498      375.82835    
      2700  -59856.4        323.44146     -59532.958      199.90028      200.01321      376.01385    
      2800  -59860.515      334.95866     -59525.556      199.89453      200.01307      376.19935    
      2900  -59849.417      322.99063     -59526.427      199.88802      200.00826      376.38486    
      3000  -59855.123      324.13562     -59530.987      199.88419      200.005        376.57036    
      3100  -59851.171      317.6593      -59533.512      199.87777      199.99921      376.75586    
      3200  -59849.085      319.615       -59529.47       199.87201      199.99717      376.94137    
      3300  -59840.574      320.36376     -59520.21       199.86245      199.99449      377.12687    
      3400  -59837.59       324.63229     -59512.958      199.85364      199.99449      377.31237    
      3500  -59832.64       322.11068     -59510.529      199.8438       199.99184      377.49787    
      3600  -59832.284      320.48469     -59511.8        199.83627      199.98873      377.68338    
      3700  -59831.61       318.38575     -59513.224      199.8298       199.9827       377.86888    
      3800  -59827.276      315.27002     -59512.006      199.82326      199.97668      378.05438    
      3900  -59821.04       315.53957     -59505.5        199.81564      199.97211      378.23988    
      4000  -59815.344      317.79344     -59497.55       199.8055       199.96855      378.42539    
      4100  -59815.714      323.4063      -59492.307      199.79405      199.96623      378.61089    
      4200  -59815.489      324.79122     -59490.698      199.78339      199.96308      378.79639    
      4300  -59811.225      319.34616     -59491.879      199.77346      199.95703      378.98189    
      4400  -59806.98       315.00535     -59491.975      199.76531      199.95057      379.1674     
      4500  -59808.717      321.75319     -59486.964      199.75649      199.94263      379.3529     
      4600  -59802.824      324.24595     -59478.578      199.74684      199.93613      379.5384     
      4700  -59793.407      322.60535     -59470.801      199.73508      199.93028      379.72391    
      4800  -59793.959      326.48787     -59467.471      199.7227       199.92538      379.90941    
      4900  -59791.223      322.19433     -59469.028      199.70999      199.91868      380.09491    
      5000  -59786.753      316.61943     -59470.133      199.69917      199.91192      380.28041    
      5100  -59785.403      319.61424     -59465.789      199.68674      199.90247      380.46592    
      5200  -59776.831      320.07808     -59456.752      199.67713      199.89501      380.65142    
      5300  -59773.595      324.72544     -59448.87       199.66313      199.88473      380.83692    
      5400  -59768.652      323.19621     -59445.456      199.65116      199.87877      381.02242    
      5500  -59768.551      322.09296     -59446.458      199.6355       199.87003      381.20793    
      5600  -59765.156      317.89305     -59447.263      199.62161      199.86305      381.39343    
      5700  -59761.114      318.19604     -59442.918      199.60731      199.85327      381.57893    
      5800  -59754.508      320.73656     -59433.771      199.59498      199.84339      381.76443    
      5900  -59746.037      321.02716     -59425.01       199.58123      199.83161      381.94994    
      6000  -59746.092      326.10523     -59419.987      199.56841      199.82243      382.13544    
      6100  -59738.855      319.07987     -59419.775      199.55152      199.81189      382.32094    
      6200  -59736.869      317.54005     -59419.329      199.53553      199.80521      382.50644    
      6300  -59733.78       319.05727     -59414.723      199.51712      199.79495      382.69195    
      6400  -59725.154      318.95303     -59406.201      199.50236      199.78591      382.87745    
      6500  -59720.366      322.52703     -59397.839      199.48599      199.77261      383.06295    
      6600  -59715.712      323.01937     -59392.693      199.47244      199.76107      383.24846    
      6700  -59712.765      321.18541     -59391.579      199.45522      199.74754      383.43396    
      6800  -59708.521      317.12901     -59391.392      199.43798      199.73776      383.61946    
      6900  -59709.785      322.7922      -59386.993      199.41773      199.72616      383.80496    
      7000  -59698.515      320.42036     -59378.094      199.39988      199.71588      383.99047    
      7100  -59690.717      322.70546     -59368.012      199.37987      199.70197      384.17597    
      7200  -59688.529      326.82471     -59361.705      199.36345      199.68949      384.36147    
      7300  -59683.891      323.589       -59360.302      199.34295      199.67399      384.54697    
      7400  -59683.362      322.66871     -59360.693      199.32422      199.6615       384.73248    
      7500  -59674.618      317.72943     -59356.888      199.30242      199.64707      384.91798    
      7600  -59668.677      321.17659     -59347.5        199.28151      199.63453      385.10348    
      7700  -59660.925      323.54042     -59337.384      199.25962      199.61895      385.28898    
      7800  -59654.644      324.0417      -59330.602      199.23949      199.60424      385.47449    
      7900  -59646.537      318.01949     -59328.518      199.21692      199.58809      385.65999    
      8000  -59647.289      319.39163     -59327.898      199.19482      199.57305      385.84549    
      8100  -59640.767      317.57035     -59323.197      199.17099      199.55728      386.03099    
      8200  -59628.792      315.06809     -59313.723      199.14737      199.54191      386.2165     
      8300  -59623.903      321.31174     -59302.591      199.12312      199.52516      386.402      
      8400  -59622.287      326.91388     -59295.373      199.09942      199.50792      386.5875     
      8500  -59615.377      322.13198     -59293.246      199.07529      199.48941      386.77301    
      8600  -59615.601      323.58732     -59292.014      199.05094      199.47109      386.95851    
      8700  -59602.337      315.05281     -59287.284      199.02464      199.45333      387.14401    
      8800  -59597.966      320.15143     -59277.814      198.99689      199.43662      387.32951    
      8900  -59585.467      318.48184     -59266.985      198.96885      199.41842      387.51502    
      9000  -59577.942      318.78263     -59259.159      198.94234      199.39894      387.70052    
      9100  -59577.327      321.62548     -59255.702      198.91496      199.37762      387.88602    
      9200  -59576.532      322.66302     -59253.869      198.88748      199.35686      388.07152    
      9300  -59565.18       316.99094     -59248.189      198.85781      199.33557      388.25703    
      9400  -59558.522      321.35419     -59237.168      198.82746      199.31523      388.44253    
      9500  -59550.043      325.12787     -59224.915      198.79681      199.29304      388.62803    
      9600  -59543.106      323.81631     -59219.29       198.76652      199.27002      388.81353    
      9700  -59540.018      323.85968     -59216.158      198.73485      199.24595      388.99904    
      9800  -59533.633      322.05599     -59211.577      198.70231      199.22279      389.18454    
      9900  -59527.224      322.38168     -59204.842      198.66798      199.19891      389.37004    
     10000  -59520.33       322.68502     -59197.645      198.63387      199.17514      389.55555    
     10100  -59512.15       321.82906     -59190.321      198.5996       199.14881      389.74105    
     10200  -59506.067      323.32116     -59182.746      198.56608      199.12204      389.92655    
     10300  -59492.741      317.01076     -59175.73       198.53158      199.09393      390.11205    
     10400  -59493.042      321.94648     -59171.096      198.49619      199.06628      390.29756    
     10500  -59488.106      320.88938     -59167.217      198.45843      199.03961      390.48306    
     10600  -59479.002      318.47853     -59160.523      198.41907      199.01431      390.66856    
     10700  -59467.564      320.3849      -59147.179      198.37963      198.98662      390.85406    
     10800  -59458.158      322.82274     -59135.335      198.34185      198.95767      391.03957    
     10900  -59451.793      322.25599     -59129.537      198.30409      198.92613      391.22507    
     11000  -59446.75       320.31706     -59126.433      198.26651      198.8947       391.41057    
     11100  -59441.796      320.84796     -59120.948      198.22567      198.86339      391.59607    
     11200  -59432.296      320.12317     -59112.173      198.18393      198.83489      391.78158    
     11300  -59425.688      322.87676     -59102.811      198.1399       198.8043       391.96708    
     11400  -59414.828      320.98077     -59093.848      198.09828      198.77374      392.15258    
     11500  -59407.845      324.4694      -59083.376      198.05548      198.73946      392.33808    
     11600  -59397.024      323.37267     -59073.651      198.01486      198.70635      392.52359    
     11700  -59389.959      320.03611     -59069.922      197.97001      198.67172      392.70909    
     11800  -59388.402      321.08083     -59067.321      197.92513      198.64005      392.89459    
     11900  -59378.211      317.94073     -59060.271      197.8778       198.60647      393.0801     
     12000  -59370.627      321.45247     -59049.174      197.83348      198.57263      393.2656     
     12100  -59355.728      322.23769     -59033.49       197.78802      198.53543      393.4511     
     12200  -59351.269      327.91288     -59023.356      197.74399      198.49929      393.6366     
     12300  -59341.227      322.48254     -59018.744      197.69732      198.46193      393.82211    
     12400  -59339.137      323.71508     -59015.422      197.64935      198.42775      394.00761    
     12500  -59333.338      322.62071     -59010.717      197.59911      198.39316      394.19311    
     12600  -59323.939      320.35025     -59003.589      197.55065      198.35778      394.37861    
     12700  -59315.056      322.70526     -58992.351      197.50344      198.31982      394.56412    
     12800  -59299.84       323.45453     -58976.385      197.457        198.28118      394.74962    
     12900  -59294.99       326.2656      -58968.724      197.40968      198.24303      394.93512    
     13000  -59290.357      324.95225     -58965.405      197.35958      198.20634      395.12062    
     13100  -59277.402      318.57788     -58958.824      197.30921      198.17116      395.30613    
     13200  -59270.916      321.44932     -58949.467      197.25817      198.13417      395.49163    
     13300  -59257.879      320.00205     -58937.877      197.20952      198.09745      395.67713    
     13400  -59246.456      324.76722     -58921.689      197.16005      198.05778      395.86263    
     13500  -59239.453      328.25479     -58911.199      197.11194      198.01959      396.04814    
     13600  -59230.711      323.87117     -58906.84       197.06069      197.98097      396.23364    
     13700  -59221.044      320.22679     -58900.817      197.01045      197.94477      396.41914    
     13800  -59215.146      320.08222     -58895.063      196.95909      197.90519      396.60465    
     13900  -59204.636      317.03667     -58887.6        196.91157      197.86647      396.79015    
     14000  -59199.604      322.65869     -58876.945      196.86186      197.82476      396.97565    
     14100  -59184.332      322.99372     -58861.338      196.81331      197.78739      397.16115    
     14200  -59177.583      326.88824     -58850.695      196.7602       197.74884      397.34666    
     14300  -59173.724      326.93888     -58846.785      196.70947      197.71386      397.53216    
     14400  -59164.911      323.33636     -58841.574      196.65727      197.67465      397.71766    
     14500  -59151.926      319.78052     -58832.145      196.61035      197.63613      397.90316    
     14600  -59140.738      320.07844     -58820.659      196.56202      197.59425      398.08867    
     14700  -59130.75       322.62991     -58808.12       196.51552      197.5561       398.27417    
     14800  -59119.759      327.12601     -58792.633      196.46541      197.51707      398.45967    
     14900  -59106.877      322.43282     -58784.444      196.41728      197.4817       398.64517    
     15000  -59102.411      319.81608     -58782.594      196.36663      197.44422      398.83068    
     15100  -59097.212      322.68977     -58774.523      196.31984      197.40857      399.01618    
     15200  -59087.333      322.42509     -58764.908      196.2721       197.36959      399.20168    
     15300  -59078.09       325.21017     -58752.88       196.22716      197.33413      399.38718    
     15400  -59062.741      324.80582     -58737.935      196.17887      197.29722      399.57269    
     15500  -59050.708      324.73227     -58725.976      196.13394      197.26297      399.75819    
     15600  -59047.88       325.20415     -58722.676      196.0881       197.22518      399.94369    
     15700  -59035.103      317.70568     -58717.398      196.04608      197.1895       400.1292     
     15800  -59026.914      321.33564     -58705.578      196.00174      197.15227      400.3147     
     15900  -59011.909      321.46721     -58690.442      195.95854      197.11902      400.5002     
     16000  -58999.529      320.74544     -58678.784      195.91226      197.08593      400.6857     
     16100  -58991.06       320.85069     -58670.209      195.86871      197.0549       400.87121    
     16200  -58983.533      319.31386     -58664.219      195.82512      197.02071      401.05671    
     16300  -58979.016      315.7559      -58663.261      195.78572      196.98764      401.24221    
     16400  -58969.293      319.27555     -58650.017      195.74566      196.95255      401.42771    
     16500  -58952.877      319.5179      -58633.359      195.70785      196.92043      401.61322    
     16600  -58937.291      317.88004     -58619.411      195.66775      196.88799      401.79872    
     16700  -58930.386      322.40299     -58607.983      195.62895      196.859        401.98422    
     16800  -58916.525      317.14699     -58599.378      195.58925      196.82929      402.16972    
     16900  -58914.651      320.17364     -58594.477      195.55174      196.80069      402.35523    
     17000  -58901.288      314.54485     -58586.743      195.51392      196.77185      402.54073    
     17100  -58889.757      318.93908     -58570.818      195.47773      196.74475      402.72623    
     17200  -58879.87       324.4368      -58555.433      195.44163      196.71623      402.91174    
     17300  -58866.589      321.14882     -58545.44       195.40832      196.68856      403.09724    
     17400  -58857.725      321.19134     -58536.533      195.37536      196.65929      403.28274    
     17500  -58850.641      322.19927     -58528.442      195.34362      196.63188      403.46824    
     17600  -58837.517      318.33477     -58519.183      195.31027      196.60543      403.65375    
     17700  -58823.718      318.65602     -58505.061      195.27698      196.5811       403.83925    
     17800  -58813.105      324.99991     -58488.106      195.24379      196.55681      404.02475    
     17900  -58797.048      320.83066     -58476.217      195.21219      196.5325       404.21025    
     18000  -58788.982      320.17325     -58468.809      195.18175      196.50722      404.39576    
     18100  -58777.627      313.26942     -58464.358      195.15229      196.4821       404.58126    
     18200  -58771.627      318.40334     -58453.223      195.12277      196.45786      404.76676    
     18300  -58759.182      319.51152     -58439.671      195.09367      196.43456      404.95226    
     18400  -58746.463      322.11264     -58424.35       195.06532      196.41067      405.13777    
     18500  -58733.943      324.35693     -58409.586      195.03845      196.38678      405.32327    
     18600  -58719.822      321.87591     -58397.946      195.01162      196.36316      405.50877    
     18700  -58710.258      317.7938      -58392.465      194.98476      196.34132      405.69427    
     18800  -58702.453      316.44942     -58386.004      194.95637      196.32041      405.87978    
     18900  -58688.322      316.98259     -58371.339      194.92827      196.30164      406.06528    
     19000  -58675.728      320.36082     -58355.367      194.90082      196.28197      406.25078    
     19100  -58661.82       319.53844     -58342.282      194.87665      196.26064      406.43629    
     19200  -58651.123      320.67071     -58330.452      194.85416      196.23775      406.62179    
     19300  -58639.059      319.8568      -58319.202      194.83143      196.21571      406.80729    
     19400  -58631.418      320.09245     -58311.325      194.80758      196.19608      406.99279    
     19500  -58619.438      317.43881     -58302          194.78211      196.17715      407.1783     
     19600  -58602.193      315.30376     -58286.89       194.75782      196.15958      407.3638     
     19700  -58590.353      320.98607     -58269.367      194.73386      196.14002      407.5493     
     19800  -58581.163      324.7041      -58256.459      194.71262      196.12061      407.7348     
     19900  -58568.727      321.52011     -58247.207      194.69072      196.09995      407.92031    
     20000  -58561.922      322.07432     -58239.847      194.66962      196.0818       408.10581    
     20100  -58549.252      315.92076     -58233.331      194.64594      196.06354      408.29131    
     20200  -58543.515      316.96476     -58226.55       194.62389      196.04714      408.47681    
     20300  -58528.025      320.08765     -58207.938      194.60237      196.02863      408.66232    
     20400  -58508.369      317.68543     -58190.683      194.58365      196.00999      408.84782    
     20500  -58500.117      325.0631      -58175.054      194.56442      195.99057      409.03332    
     20600  -58482.888      322.23179     -58160.657      194.54468      195.97353      409.21882    
     20700  -58470.732      321.87523     -58148.857      194.52298      195.95839      409.40433    
     20800  -58465.735      322.74087     -58142.994      194.50111      195.94441      409.58983    
     20900  -58452.608      318.67919     -58133.929      194.48025      195.92921      409.77533    
     21000  -58436.858      318.82275     -58118.035      194.4618       195.91291      409.96084    
     21100  -58423.732      322.33083     -58101.401      194.4448       195.89495      410.14634    
     21200  -58407.711      319.30277     -58088.408      194.42797      195.8778       410.33184    
     21300  -58398.54       322.45461     -58076.085      194.40909      195.86199      410.51734    
     21400  -58383.322      319.11628     -58064.205      194.38934      195.84835      410.70285    
     21500  -58368.743      317.12585     -58051.617      194.36965      195.83422      410.88835    
     21600  -58353.65       317.67484     -58035.975      194.35136      195.81896      411.07385    
     21700  -58344.5        324.57464     -58019.925      194.3337       195.80326      411.25935    
     21800  -58332.682      324.14185     -58008.54       194.31527      195.78798      411.44486    
     21900  -58321.53       318.56487     -58002.965      194.29673      195.77373      411.63036    
     22000  -58307.214      315.46728     -57991.747      194.27763      195.75871      411.81586    
     22100  -58295.829      319.40155     -57976.428      194.26028      195.74384      412.00136    
     22200  -58281.627      321.15258     -57960.474      194.24287      195.72708      412.18687    
     22300  -58267.438      320.33197     -57947.106      194.22695      195.71126      412.37237    
     22400  -58255.546      320.79355     -57934.753      194.20958      195.69485      412.55787    
     22500  -58242.048      318.91119     -57923.137      194.19243      195.68013      412.74338    
     22600  -58228.67       316.94891     -57911.721      194.17382      195.66558      412.92888    
     22700  -58215.7        316.5645      -57899.135      194.15508      195.65232      413.11438    
     22800  -58202.521      320.83184     -57881.689      194.1364       195.63857      413.29988    
     22900  -58185.742      321.91914     -57863.823      194.1189       195.62374      413.48539    
     23000  -58174.068      323.06772     -57851          194.10249      195.60782      413.67089    
     23100  -58161.244      317.90374     -57843.34       194.08655      195.59114      413.85639    
     23200  -58151.701      317.76558     -57833.936      194.07006      195.57481      414.04189    
     23300  -58137.597      318.84913     -57818.748      194.05277      195.55945      414.2274     
     23400  -58121.88       318.45984     -57803.42       194.03418      195.54512      414.4129     
     23500  -58108.564      321.30349     -57787.26       194.01553      195.53114      414.5984     
     23600  -58093.318      322.45891     -57770.859      193.99695      195.51587      414.7839     
     23700  -58083.23       326.27518     -57756.955      193.98027      195.50046      414.96941    
     23800  -58068.121      318.89121     -57749.23       193.96316      195.4827       415.15491    
     23900  -58058.01       318.01531     -57739.995      193.94703      195.46665      415.34041    
     24000  -58043.118      318.46715     -57724.651      193.92877      195.45064      415.52591    
     24100  -58027.698      321.90232     -57705.795      193.91027      195.43653      415.71142    
     24200  -58010.968      320.69344     -57690.275      193.89187      195.4213       415.89692    
     24300  -57997.526      319.31168     -57678.214      193.87567      195.40442      416.08242    
     24400  -57989.766      322.44745     -57667.319      193.8604       195.38654      416.26793    
     24500  -57973.077      317.26757     -57655.81       193.84348      195.37032      416.45343    
     24600  -57963.018      321.07983     -57641.938      193.8242       195.35666      416.63893    
     24700  -57943.167      320.33622     -57622.83       193.80417      195.34388      416.82443    
     24800  -57928.99       323.88498     -57605.105      193.78556      195.32984      417.00994    
     24900  -57916.024      322.52507     -57593.499      193.76882      195.31312      417.19544    
     25000  -57904.386      318.4524      -57585.934      193.75377      195.29532      417.38094    
     25100  -57892.092      318.87256     -57573.219      193.73752      195.27781      417.56644    
     25200  -57873.527      316.68234     -57556.845      193.71943      195.26337      417.75195    
     25300  -57860.913      320.81153     -57540.101      193.69904      195.24912      417.93745    
     25400  -57843.303      319.82207     -57523.481      193.68035      195.23454      418.12295    
     25500  -57835.287      326.24998     -57509.037      193.66299      195.21661      418.30845    
     25600  -57819.601      318.46527     -57501.136      193.64767      195.19866      418.49396    
     25700  -57808.092      316.7229      -57491.369      193.62961      195.18086      418.67946    
     25800  -57796.153      322.97244     -57473.18       193.60999      195.16666      418.86496    
     25900  -57775.03       320.83197     -57454.198      193.58823      195.15191      419.05046    
     26000  -57763.137      324.13783     -57438.999      193.56974      195.13687      419.23597    
     26100  -57747.226      322.17504     -57425.051      193.55235      195.11722      419.42147    
     26200  -57733.897      320.15409     -57413.743      193.53761      195.09794      419.60697    
     26300  -57722.442      317.46797     -57404.974      193.51922      195.07867      419.79248    
     26400  -57705.955      317.15562     -57388.799      193.49983      195.06359      419.97798    
     26500  -57687.31       319.52221     -57367.787      193.47792      195.04797      420.16348    
     26600  -57667.471      315.99249     -57351.478      193.45906      195.03172      420.34898    
     26700  -57659.029      322.67416     -57336.355      193.44097      195.01199      420.53449    
     26800  -57643.27       319.97333     -57323.297      193.42369      194.9929       420.71999    
     26900  -57632.813      320.17807     -57312.635      193.40368      194.9745       420.90549    
     27000  -57617.053      317.18684     -57299.866      193.38293      194.95843      421.09099    
     27100  -57599.228      318.53962     -57280.689      193.3617       194.9402       421.2765     
     27200  -57585.002      324.31993     -57260.682      193.34358      194.92114      421.462      
     27300  -57568.564      322.16582     -57246.398      193.32496      194.89959      421.6475     
     27400  -57558.874      323.12308     -57235.751      193.3063       194.88007      421.833      
     27500  -57542.007      317.25557     -57224.751      193.28454      194.86142      422.01851    
     27600  -57531.246      321.73759     -57209.508      193.26236      194.84456      422.20401    
     27700  -57508.27       324.08937     -57184.181      193.24045      194.82638      422.38951    
     27800  -57495.135      325.19361     -57169.941      193.22046      194.80645      422.57502    
     27900  -57481.368      319.76186     -57161.606      193.20196      194.78485      422.76052    
     28000  -57474.392      323.80204     -57150.59       193.18329      194.76351      422.94602    
     28100  -57455.37       319.87591     -57135.494      193.16196      194.74388      423.13152    
     28200  -57436.649      320.50785     -57116.141      193.14009      194.72695      423.31703    
     28300  -57417.154      321.71667     -57095.437      193.1171       194.7085       423.50253    
     28400  -57407.792      325.98982     -57081.803      193.09666      194.68955      423.68803    
     28500  -57391.524      321.41393     -57070.11       193.07662      194.6681       423.87353    
     28600  -57376.694      319.91213     -57056.782      193.05791      194.64726      424.05904    
     28700  -57362.249      320.53462     -57041.714      193.0364       194.62633      424.24454    
     28800  -57344.22       319.74091     -57024.479      193.01459      194.60838      424.43004    
     28900  -57328.858      327.08016     -57001.778      192.99127      194.58903      424.61554    
     29000  -57309.903      322.79743     -56987.105      192.97049      194.56914      424.80105    
     29100  -57298.827      321.21603     -56977.611      192.94945      194.54656      424.98655    
     29200  -57284.313      319.59858     -56964.714      192.92897      194.52596      425.17205    
     29300  -57272.638      322.66277     -56949.976      192.90509      194.50533      425.35755    
     29400  -57257.779      324.01048     -56933.769      192.88253      194.48707      425.54306    
     29500  -57236.276      322.92686     -56913.349      192.85847      194.46531      425.72856    
     29600  -57221.409      327.10579     -56894.303      192.83895      194.44381      425.91406    
     29700  -57205.787      321.36138     -56884.426      192.81795      194.41826      426.09957    
     29800  -57192.789      319.243       -56873.546      192.79848      194.39644      426.28507    
     29900  -57178.261      319.45975     -56858.801      192.77326      194.37419      426.47057    
     30000  -57161.037      318.79776     -56842.239      192.7492       194.35695      426.65607    
     30100  -57148.867      327.47508     -56821.392      192.72276      194.33547      426.84158    
     30200  -57125.65       323.3536      -56802.296      192.70154      194.31483      427.02708    
     30300  -57115.586      324.605       -56790.981      192.6788       194.28933      427.21258    
     30400  -57098.308      315.49819     -56782.81       192.65843      194.26633      427.39808    
     30500  -57084.387      318.51361     -56765.874      192.63409      194.24199      427.58359    
     30600  -57066.692      321.40674     -56745.285      192.61047      194.22165      427.76909    
     30700  -57055.136      328.375       -56726.761      192.58352      194.19897      427.95459    
     30800  -57031.306      318.47227     -56712.834      192.56061      194.17714      428.14009    
     30900  -57027.665      323.91503     -56703.75       192.53692      194.15077      428.3256     
     31000  -57005.579      312.07628     -56693.503      192.51577      194.12615      428.5111     
     31100  -56992.647      318.07182     -56674.576      192.49098      194.10046      428.6966     
     31200  -56971.561      317.47169     -56654.09       192.46698      194.07871      428.8821     
     31300  -56957.718      322.66619     -56635.052      192.43908      194.05506      429.06761    
     31400  -56938.01       319.51772     -56618.492      192.41456      194.03422      429.25311    
     31500  -56929.266      326.64788     -56602.618      192.38818      194.00869      429.43861    
     31600  -56910.261      318.19474     -56592.067      192.36647      193.98476      429.62412    
     31700  -56894.939      315.31583     -56579.624      192.34224      193.9574       429.80962    
     31800  -56881.406      320.73169     -56560.675      192.31986      193.93368      429.99512    
     31900  -56859.084      320.711       -56538.373      192.29348      193.90884      430.18062    
     32000  -56844.825      322.88851     -56521.937      192.26901      193.8869       430.36613    
     32100  -56831.775      324.68462     -56507.091      192.24276      193.86174      430.55163    
     32200  -56811.213      316.80724     -56494.406      192.2196       193.83815      430.73713    
     32300  -56803.859      320.2399      -56483.619      192.19322      193.81266      430.92263    
     32400  -56782.697      314.07339     -56468.624      192.16846      193.78983      431.10814    
     32500  -56767.741      323.57538     -56444.165      192.14186      193.76513      431.29364    
     32600  -56746.338      321.18956     -56425.149      192.11684      193.74167      431.47914    
     32700  -56734.211      325.89635     -56408.315      192.09074      193.71626      431.66464    
     32800  -56713.446      320.23023     -56393.216      192.06682      193.69064      431.85015    
     32900  -56699.173      319.0687      -56380.104      192.04203      193.66433      432.03565    
     33000  -56688.468      320.98011     -56367.488      192.01649      193.63908      432.22115    
     33100  -56668.522      319.51807     -56349.004      191.99004      193.61487      432.40666    
     33200  -56646.967      321.07965     -56325.888      191.96332      193.58988      432.59216    
     33300  -56628.522      319.88052     -56308.642      191.93898      193.5645       432.77766    
     33400  -56615.718      321.30304     -56294.415      191.91377      193.53671      432.96316    
     33500  -56599.712      316.00581     -56283.706      191.88948      193.51138      433.14867    
     33600  -56588.434      316.60036     -56271.833      191.86146      193.48595      433.33417    
     33700  -56570.481      322.67676     -56247.804      191.83416      193.46327      433.51967    
     33800  -56551.856      325.5527      -56226.303      191.80545      193.43843      433.70517    
     33900  -56534.104      323.94591     -56210.158      191.78022      193.41285      433.89068    
     34000  -56517.76       320.96102     -56196.799      191.75529      193.38387      434.07618    
     34100  -56503.048      319.15035     -56183.898      191.73161      193.35616      434.26168    
     34200  -56484.345      318.02989     -56166.315      191.70471      193.32885      434.44718    
     34300  -56469.509      326.85655     -56142.653      191.67687      193.30493      434.63269    
     34400  -56446.108      320.91171     -56125.196      191.64739      193.27926      434.81819    
     34500  -56433.297      321.57045     -56111.727      191.62172      193.25315      435.00369    
     34600  -56418.752      320.27823     -56098.474      191.59583      193.22329      435.18919    
     34700  -56403.872      321.19788     -56082.674      191.57193      193.19558      435.3747     
     34800  -56386.802      321.74197     -56065.06       191.54462      193.16712      435.5602     
     34900  -56369.314      321.9318      -56047.382      191.518        193.14273      435.7457     
     35000  -56346.357      317.55161     -56028.806      191.48768      193.11662      435.93121    
     35100  -56329.115      321.05371     -56008.062      191.46115      193.09298      436.11671    
     35200  -56318.792      331.49961     -55987.293      191.43274      193.06479      436.30221    
     35300  -56295.019      320.52894     -55974.49       191.40881      193.03914      436.48771    
     35400  -56285.712      320.94233     -55964.769      191.38112      193.01028      436.67322    
     35500  -56269.275      320.52621     -55948.749      191.35651      192.98507      436.85872    
     35600  -56248.621      319.3731      -55929.248      191.32954      192.95614      437.04422    
     35700  -56232.074      324.62295     -55907.451      191.306        192.92989      437.22972    
     35800  -56211.284      322.52511     -55888.759      191.27866      192.90149      437.41523    
     35900  -56198.478      320.62028     -55877.857      191.25221      192.87759      437.60073    
     36000  -56185.439      319.09441     -55866.344      191.22237      192.85227      437.78623    
     36100  -56165.054      317.13677     -55847.917      191.19527      192.82866      437.97173    
     36200  -56149.188      323.65461     -55825.534      191.16732      192.80191      438.15724    
     36300  -56131.791      325.26639     -55806.525      191.14288      192.77528      438.34274    
     36400  -56109.704      318.69712     -55791.006      191.11709      192.74687      438.52824    
     36500  -56094.861      318.9152      -55775.945      191.09094      192.72139      438.71374    
     36600  -56078.983      316.93401     -55762.049      191.06239      192.69632      438.89925    
     36700  -56068.894      316.08338     -55752.81       191.03591      192.67126      439.08475    
     36800  -56047.866      315.8649      -55732.001      191.01036      192.64324      439.27025    
     36900  -56027.33       318.92713     -55708.402      190.9869       192.61586      439.45576    
     37000  -56010.954      322.86655     -55688.087      190.96033      192.58845      439.64126    
     37100  -55993.007      324.0384      -55668.968      190.93391      192.5645       439.82676    
     37200  -55976.398      323.49919     -55652.898      190.9053       192.53874      440.01226    
     37300  -55955.99       314.05589     -55641.934      190.88008      192.51327      440.19777    
     37400  -55944.905      317.73248     -55627.172      190.8552       192.48469      440.38327    
     37500  -55922.821      317.7986      -55605.023      190.83054      192.45752      440.56877    
     37600  -55905.908      322.30408     -55583.604      190.80267      192.43291      440.75427    
     37700  -55891.644      324.74407     -55566.899      190.77257      192.40998      440.93978    
     37800  -55873.948      322.04771     -55551.9        190.74436      192.38639      441.12528    
     37900  -55857.59       319.74447     -55537.846      190.7182       192.35888      441.31078    
     38000  -55841.991      318.19968     -55523.791      190.69516      192.33093      441.49628    
     38100  -55820.523      313.59691     -55506.926      190.67082      192.30136      441.68179    
     38200  -55803.978      320.86218     -55483.116      190.64675      192.27502      441.86729    
     38300  -55784.658      322.11143     -55462.547      190.61949      192.24884      442.05279    
     38400  -55771.855      324.79382     -55447.061      190.59365      192.22521      442.23829    
     38500  -55755.342      320.42524     -55434.917      190.56629      192.199        442.4238     
     38600  -55738.364      316.69999     -55421.664      190.54221      192.17463      442.6093     
     38700  -55720.484      321.23142     -55399.253      190.51589      192.14781      442.7948     
     38800  -55699.366      324.38415     -55374.981      190.49113      192.12485      442.98031    
     38900  -55682.327      322.53809     -55359.789      190.46307      192.10031      443.16581    
     39000  -55666.375      319.89697     -55346.478      190.43827      192.07766      443.35131    
     39100  -55653.223      321.39122     -55331.832      190.4128       192.05076      443.53681    
     39200  -55631.111      319.74811     -55311.363      190.39046      192.02627      443.72232    
     39300  -55608.861      321.97466     -55286.887      190.36496      192.00031      443.90782    
     39400  -55597.635      327.38687     -55270.248      190.34043      191.97761      444.09332    
     39500  -55577.963      321.3276      -55256.636      190.31391      191.9535       444.27882    
     39600  -55560.794      318.41477     -55242.379      190.29024      191.93002      444.46433    
     39700  -55543.652      319.23946     -55224.413      190.26639      191.90421      444.64983    
     39800  -55522.379      325.15963     -55197.219      190.24394      191.87944      444.83533    
     39900  -55503.687      324.03606     -55179.651      190.21931      191.85465      445.02083    
     40000  -55493.053      325.11027     -55167.943      190.19549      191.83203      445.20634    
     40100  -55471.706      317.73278     -55153.973      190.17038      191.80799      445.39184    
     40200  -55456.174      320.67754     -55135.497      190.14731      191.78488      445.57734    
     40300  -55433.899      321.44762     -55112.452      190.12291      191.76083      445.76285    
     40400  -55416.166      326.21816     -55089.948      190.0987       191.73904      445.94835    
     40500  -55397.49       322.52319     -55074.967      190.07247      191.71754      446.13385    
     40600  -55383.804      324.14951     -55059.655      190.04728      191.69594      446.31935    
     40700  -55367.832      323.60942     -55044.223      190.02447      191.67261      446.50486    
     40800  -55348.351      319.27085     -55029.08       190.00234      191.6467       446.69036    
     40900  -55329.909      317.44085     -55012.468      189.98175      191.62206      446.87586    
     41000  -55312.827      321.48834     -54991.339      189.95821      191.59712      447.06136    
     41100  -55292.397      324.16482     -54968.232      189.93555      191.57561      447.24687    
     41200  -55276.038      325.13123     -54950.907      189.91048      191.55177      447.43237    
     41300  -55258.579      319.17055     -54939.408      189.88865      191.5295       447.61787    
     41400  -55243.957      320.26757     -54923.689      189.86521      191.50487      447.80337    
     41500  -55222.425      317.5714      -54904.853      189.84284      191.48312      447.98888    
     41600  -55208.811      324.3164      -54884.494      189.81776      191.46071      448.17438    
     41700  -55187.631      324.01468     -54863.616      189.79453      191.44003      448.35988    
     41800  -55167.243      324.64564     -54842.597      189.77146      191.4168       448.54538    
     41900  -55149.456      323.35288     -54826.104      189.75055      191.39447      448.73089    
     42000  -55133.845      318.6609      -54815.185      189.72838      191.37043      448.91639    
     42100  -55119.39       319.4532      -54799.937      189.7072       191.34854      449.10189    
     42200  -55098.229      318.2018      -54780.027      189.68451      191.32634      449.2874     
     42300  -55079.103      322.5866      -54756.516      189.66259      191.30564      449.4729     
     42400  -55058.632      323.27186     -54735.36       189.63989      191.28392      449.6584     
     42500  -55049.327      325.2728      -54724.054      189.61878      191.26274      449.8439     
     42600  -55028.234      316.1828      -54712.052      189.59748      191.24002      450.02941    
     42700  -55008.289      317.0597      -54691.229      189.57814      191.21797      450.21491    
     42800  -54988.901      320.93626     -54667.965      189.55714      191.19528      450.40041    
     42900  -54968.169      319.59371     -54648.575      189.53613      191.17482      450.58591    
     43000  -54954.083      319.69136     -54634.391      189.51361      191.15489      450.77142    
     43100  -54941.179      318.90905     -54622.27       189.49144      191.13525      450.95692    
     43200  -54923.169      319.29243     -54603.876      189.47038      191.11487      451.14242    
     43300  -54902.443      318.83896     -54583.604      189.44962      191.09418      451.32792    
     43400  -54885.034      321.29974     -54563.734      189.42847      191.07478      451.51343    
     43500  -54865.42       321.51101     -54543.909      189.40607      191.0557       451.69893    
     43600  -54847.854      322.66144     -54525.192      189.38553      191.03704      451.88443    
     43700  -54830.02       323.53813     -54506.482      189.3648       191.01463      452.06993    
     43800  -54813.071      323.06167     -54490.009      189.34883      190.99375      452.25544    
     43900  -54795.499      320.7917      -54474.708      189.32856      190.96945      452.44094    
     44000  -54776.656      318.8061      -54457.85       189.31087      190.95117      452.62644    
     44100  -54757.792      319.84052     -54437.952      189.28749      190.92999      452.81195    
     44200  -54735.472      321.38568     -54414.086      189.26803      190.91319      452.99745    
     44300  -54717.418      323.23504     -54394.183      189.24559      190.89198      453.18295    
     44400  -54702.455      321.59402     -54380.861      189.22727      190.87296      453.36845    
     44500  -54689.498      322.10107     -54367.397      189.20629      190.85125      453.55396    
     44600  -54667.2        318.60344     -54348.597      189.1868       190.83239      453.73946    
     44700  -54649.002      321.03595     -54327.966      189.16543      190.81258      453.92496    
     44800  -54629.076      322.28014     -54306.796      189.14527      190.79382      454.11046    
     44900  -54611.762      323.48674     -54288.275      189.12574      190.77325      454.29597    
     45000  -54594.268      317.42184     -54276.846      189.10729      190.75253      454.48147    
     45100  -54578.929      316.79568     -54262.133      189.0885       190.73214      454.66697    
     45200  -54561.457      319.62732     -54241.829      189.06866      190.71255      454.85247    
     45300  -54534.612      316.82883     -54217.783      189.04894      190.69467      455.03798    
     45400  -54520.638      322.91887     -54197.719      189.02833      190.67582      455.22348    
     45500  -54504.082      322.90552     -54181.177      189.01027      190.65622      455.40898    
     45600  -54483.404      318.22677     -54165.177      188.99307      190.63458      455.59449    
     45700  -54467.132      318.21556     -54148.917      188.97627      190.61383      455.77999    
     45800  -54451.612      317.48135     -54134.131      188.95737      190.59422      455.96549    
     45900  -54437.059      318.97428     -54118.085      188.93747      190.57704      456.15099    
     46000  -54416.92       322.78497     -54094.135      188.9163       190.5596       456.3365     
     46100  -54395.965      324.14774     -54071.817      188.89694      190.5419       456.522      
     46200  -54375.307      321.49523     -54053.812      188.87872      190.52282      456.7075     
     46300  -54359.732      320.29436     -54039.437      188.8608       190.50352      456.893      
     46400  -54343.902      316.33023     -54027.571      188.84179      190.48531      457.07851    
     46500  -54326.203      318.20744     -54007.996      188.82281      190.46829      457.26401    
     46600  -54307.941      321.96012     -53985.981      188.80429      190.44963      457.44951    
     46700  -54286.971      322.05864     -53964.912      188.78784      190.43042      457.63501    
     46800  -54266.561      323.22883     -53943.332      188.771        190.41034      457.82052    
     46900  -54248.771      326.09268     -53922.678      188.75436      190.39212      458.00602    
     47000  -54225.065      317.94424     -53907.12       188.73526      190.37416      458.19152    
     47100  -54208.559      313.6771      -53894.882      188.71642      190.35796      458.37702    
     47200  -54199.068      323.3042      -53875.764      188.69772      190.34068      458.56253    
     47300  -54177.625      324.56546     -53853.06       188.68003      190.32212      458.74803    
     47400  -54157.345      324.57663     -53832.768      188.66321      190.30373      458.93353    
     47500  -54134.463      319.76909     -53814.694      188.6451       190.28451      459.11904    
     47600  -54118.136      320.53395     -53797.602      188.62737      190.26768      459.30454    
     47700  -54103.852      321.20371     -53782.648      188.60716      190.24993      459.49004    
     47800  -54090.769      320.03768     -53770.731      188.58864      190.23381      459.67554    
     47900  -54070.272      317.99842     -53752.273      188.5694       190.21521      459.86105    
     48000  -54046.909      321.99336     -53724.916      188.55228      190.19788      460.04655    
     48100  -54025.449      320.97757     -53704.471      188.53347      190.17937      460.23205    
     48200  -54007.793      321.94316     -53685.85       188.51573      190.16194      460.41755    
     48300  -53994.233      323.7087      -53670.524      188.49827      190.14315      460.60306    
     48400  -53972.661      316.32996     -53656.331      188.48205      190.12321      460.78856    
     48500  -53956.479      319.18599     -53637.293      188.46654      190.10379      460.97406    
     48600  -53934.805      324.90492     -53609.9        188.44901      190.08482      461.15956    
     48700  -53914.664      324.90955     -53589.754      188.43118      190.06825      461.34507    
     48800  -53896.246      321.49223     -53574.754      188.4119       190.05089      461.53057    
     48900  -53880.585      320.34052     -53560.245      188.39476      190.03456      461.71607    
     49000  -53861.45       319.37863     -53542.071      188.376        190.01597      461.90157    
     49100  -53842.107      320.48482     -53521.622      188.35905      190            462.08708    
     49200  -53820.766      319.69308     -53501.073      188.3396       189.9815       462.27258    
     49300  -53803.683      321.13771     -53482.545      188.32264      189.96552      462.45808    
     49400  -53790.25       322.36371     -53467.887      188.30487      189.94651      462.64359    
     49500  -53771.879      319.21779     -53452.661      188.28873      189.92833      462.82909    
     49600  -53751.925      318.25523     -53433.67       188.27201      189.91005      463.01459    
     49700  -53733.727      323.61575     -53410.112      188.25416      189.89217      463.20009    
     49800  -53713.934      326.4004      -53387.533      188.23698      189.87617      463.3856     
     49900  -53693.648      321.76256     -53371.885      188.21841      189.85828      463.5711     
     50000  -53678.093      317.65535     -53360.437      188.20287      189.84137      463.7566     
     50100  -53656.424      316.11924     -53340.305      188.18632      189.82167      463.9421     
     50200  -53641.447      323.83834     -53317.609      188.17128      189.80425      464.12761    
     50300  -53621.507      326.33605     -53295.171      188.15295      189.78659      464.31311    
     50400  -53604.476      326.80282     -53277.673      188.13441      189.77259      464.49861    
     50500  -53584.792      318.53782     -53266.254      188.11492      189.75712      464.68411    
     50600  -53571.805      324.13204     -53247.673      188.09739      189.74069      464.86962    
     50700  -53547.836      323.51585     -53224.32       188.08086      189.72257      465.05512    
     50800  -53528.225      327.18634     -53201.039      188.06395      189.70496      465.24062    
     50900  -53506.27       323.07303     -53183.197      188.04539      189.68816      465.42613    
     51000  -53492.61       321.29736     -53171.312      188.02712      189.67243      465.61163    
     51100  -53472.488      319.69993     -53152.788      188.00903      189.65438      465.79713    
     51200  -53453.134      321.29155     -53131.842      187.99354      189.63524      465.98263    
     51300  -53432.004      320.38265     -53111.621      187.97823      189.61514      466.16814    
     51400  -53413.832      320.85201     -53092.98       187.96189      189.59601      466.35364    
     51500  -53396.858      318.39962     -53078.459      187.944        189.57903      466.53914    
     51600  -53376.96       314.06863     -53062.891      187.9246       189.56292      466.72464    
     51700  -53365.341      324.03743     -53041.304      187.90585      189.54734      466.91015    
     51800  -53337.671      322.38744     -53015.284      187.88763      189.52965      467.09565    
     51900  -53321.218      326.44909     -52994.769      187.87187      189.51163      467.28115    
     52000  -53302.761      324.91194     -52977.849      187.85529      189.49237      467.46665    
     52100  -53281.793      318.6148      -52963.179      187.83785      189.47522      467.65216    
     52200  -53268.377      321.17502     -52947.202      187.81876      189.45918      467.83766    
     52300  -53250.39       321.55264     -52928.838      187.79954      189.44348      468.02316    
     52400  -53230.276      324.14091     -52906.135      187.78116      189.42597      468.20866    
     52500  -53206.111      325.5635      -52880.547      187.76499      189.40785      468.39417    
     52600  -53186.661      323.88401     -52862.777      187.74832      189.38805      468.57967    
     52700  -53174.052      324.05657     -52849.995      187.73191      189.37035      468.76517    
     52800  -53153.642      320.69136     -52832.95       187.71291      189.35248      468.95068    
     52900  -53136.799      321.15946     -52815.639      187.69529      189.33644      469.13618    
     53000  -53117.623      319.46366     -52798.159      187.67696      189.31771      469.32168    
     53100  -53097.315      317.42803     -52779.887      187.6618       189.2993       469.50718    
     53200  -53079.89       320.61678     -52759.273      187.64584      189.27893      469.69269    
     53300  -53058.449      322.5886      -52735.861      187.62985      189.26138      469.87819    
     53400  -53038.328      324.23639     -52714.092      187.60985      189.24493      470.06369    
     53500  -53020.963      321.11335     -52699.85       187.58961      189.23099      470.24919    
     53600  -53004.522      319.52259     -52684.999      187.57027      189.21594      470.4347     
     53700  -52986.688      322.37673     -52664.311      187.55281      189.19761      470.6202     
     53800  -52964.733      321.99618     -52642.737      187.53788      189.17882      470.8057     
     53900  -52944.767      326.66577     -52618.101      187.52092      189.15948      470.9912     
     54000  -52925.221      331.12849     -52594.093      187.50305      189.14331      471.17671    
     54100  -52904.519      323.0337      -52581.485      187.48269      189.1269       471.36221    
     54200  -52886.21       320.41355     -52565.796      187.46466      189.1108       471.54771    
     54300  -52871.216      322.2409      -52548.975      187.4463       189.09153      471.73321    
     54400  -52852.547      319.8919      -52532.655      187.43066      189.07267      471.91872    
     54500  -52833.375      318.62363     -52514.751      187.41318      189.05249      472.10422    
     54600  -52813.55       319.45366     -52494.096      187.39569      189.03509      472.28972    
     54700  -52791.949      321.75592     -52470.193      187.37604      189.01754      472.47523    
     54800  -52772.396      324.21956     -52448.176      187.3574       188.99978      472.66073    
     54900  -52757.865      324.0849      -52433.78       187.34039      188.98132      472.84623    
     55000  -52741.629      323.10417     -52418.525      187.322        188.96143      473.03173    
     55100  -52720.607      321.21558     -52399.391      187.30496      188.94474      473.21724    
     55200  -52702.008      322.89533     -52379.113      187.28417      188.92695      473.40274    
     55300  -52680.776      324.74508     -52356.031      187.26514      188.91163      473.58824    
     55400  -52660.253      326.61116     -52333.641      187.24537      188.89332      473.77374    
     55500  -52641.16       323.01667     -52318.143      187.22841      188.8751       473.95925    
     55600  -52622.928      319.56469     -52303.364      187.21113      188.85508      474.14475    
     55700  -52603.705      319.86672     -52283.838      187.19403      188.83576      474.33025    
     55800  -52581.946      319.84411     -52262.102      187.17606      188.81749      474.51575    
     55900  -52559.73       321.86718     -52237.863      187.15698      188.79901      474.70126    
     56000  -52544.47       327.44472     -52217.025      187.13857      188.78008      474.88676    
     56100  -52525.206      320.56363     -52204.642      187.12118      188.7608       475.07226    
     56200  -52510.154      322.3688      -52187.785      187.10319      188.7416       475.25776    
     56300  -52486.475      317.04172     -52169.434      187.08359      188.72407      475.44327    
     56400  -52472.633      320.98819     -52151.645      187.06328      188.70739      475.62877    
     56500  -52453.686      318.88998     -52134.796      187.04368      188.68928      475.81427    
     56600  -52435.793      316.90563     -52118.887      187.02681      188.6704       475.99978    
     56700  -52413.726      315.81625     -52097.909      187.00952      188.64966      476.18528    
     56800  -52390.868      322.33225     -52068.535      186.99225      188.63162      476.37078    
     56900  -52370.542      323.47207     -52047.07       186.9713       188.61413      476.55628    
     57000  -52354.359      323.58217     -52030.777      186.95169      188.59834      476.74179    
     57100  -52335.579      320.85667     -52014.723      186.93273      188.57899      476.92729    
     57200  -52312.111      317.20615     -51994.905      186.91676      188.55882      477.11279    
     57300  -52298.345      324.56408     -51973.781      186.89914      188.53768      477.29829    
     57400  -52278.984      323.58093     -51955.403      186.88076      188.52025      477.4838     
     57500  -52261.463      320.32792     -51941.135      186.85883      188.50268      477.6693     
     57600  -52242.108      320.80843     -51921.299      186.83922      188.48555      477.8548     
     57700  -52217.579      321.04745     -51896.532      186.82073      188.46486      478.0403     
     57800  -52194.635      324.52236     -51870.112      186.80442      188.44412      478.22581    
     57900  -52174.533      321.91059     -51852.622      186.78563      188.42308      478.41131    
     58000  -52160.708      321.66885     -51839.039      186.76594      188.40616      478.59681    
     58100  -52145.796      325.33508     -51820.46       186.743        188.38903      478.78232    
     58200  -52121.206      319.28144     -51801.924      186.7224       188.37258      478.96782    
     58300  -52104.426      321.02385     -51783.402      186.70303      188.35275      479.15332    
     58400  -52085.497      321.0737      -51764.424      186.68637      188.33138      479.33882    
     58500  -52068.714      322.07308     -51746.641      186.66874      188.3104       479.52433    
     58600  -52047.11       318.65309     -51728.457      186.64919      188.29131      479.70983    
     58700  -52027.588      322.73255     -51704.855      186.62858      188.27377      479.89533    
     58800  -52004.213      327.42634     -51676.787      186.60796      188.25524      480.08083    
     58900  -51981.068      325.99736     -51655.071      186.58923      188.23489      480.26634    
     59000  -51961.478      322.73972     -51638.738      186.57214      188.21342      480.45184    
     59100  -51942.175      321.7896      -51620.385      186.55345      188.19248      480.63734    
     59200  -51920.563      317.45965     -51603.104      186.53291      188.1744       480.82284    
     59300  -51902.074      316.94585     -51585.128      186.5109       188.15628      481.00835    
     59400  -51882.407      316.88587     -51565.522      186.4916       188.13751      481.19385    
     59500  -51869.067      321.84333     -51547.224      186.47287      188.11597      481.37935    
     59600  -51850.337      317.43691     -51532.9        186.45523      188.09596      481.56485    
     59700  -51831.019      320.97706     -51510.042      186.43484      188.07538      481.75036    
     59800  -51805.199      322.04834     -51483.151      186.41508      188.05739      481.93586    
     59900  -51781.757      321.72352     -51460.033      186.39358      188.0383       482.12136    
     60000  -51761.102      320.72672     -51440.375      186.37486      188.01951      482.30687    
     60100  -51745.542      323.72025     -51421.822      186.35536      187.9982       482.49237    
     60200  -51727.802      325.89764     -51401.904      186.337        187.97935      482.67787    
     60300  -51700.457      319.23843     -51381.218      186.31576      187.95935      482.86337    
     60400  -51680.444      319.87742     -51360.566      186.29713      187.94136      483.04888    
     60500  -51664.368      323.06584     -51341.302      186.27611      187.91944      483.23438    
     60600  -51642.121      321.76846     -51320.352      186.2599       187.89994      483.41988    
     60700  -51621.44       322.11452     -51299.325      186.2395       187.8771       483.60538    
     60800  -51605.447      325.52457     -51279.923      186.22036      187.85943      483.79089    
     60900  -51578.476      315.99692     -51262.48       186.19715      187.8402       483.97639    
     61000  -51561.702      320.72956     -51240.972      186.17718      187.82251      484.16189    
     61100  -51541.909      322.80174     -51219.108      186.15682      187.80135      484.34739    
     61200  -51519.354      321.56786     -51197.786      186.13778      187.78108      484.5329     
     61300  -51501.024      322.92699     -51178.097      186.11774      187.76082      484.7184     
     61400  -51481.603      319.13257     -51162.47       186.09689      187.74198      484.9039     
     61500  -51460.376      317.03964     -51143.336      186.07584      187.72263      485.0894     
     61600  -51441.101      323.0508      -51118.05       186.05633      187.70242      485.27491    
     61700  -51415.239      323.23223     -51092.007      186.03709      187.68107      485.46041    
     61800  -51390.336      322.76726     -51067.569      186.01868      187.66043      485.64591    
     61900  -51372.545      321.08461     -51051.46       185.99865      187.63928      485.83142    
     62000  -51352.942      320.33384     -51032.608      185.97845      187.61979      486.01692    
     62100  -51329.708      319.04184     -51010.666      185.95812      187.59961      486.20242    
     62200  -51312.749      322.64709     -50990.102      185.93872      187.57901      486.38792    
     62300  -51289.786      317.77984     -50972.006      185.9187       187.55814      486.57343    
     62400  -51272.402      321.27471     -50951.127      185.89869      187.53872      486.75893    
     62500  -51247.519      320.13315     -50927.386      185.87729      187.51901      486.94443    
     62600  -51227.209      323.5533      -50903.656      185.85603      187.50016      487.12993    
     62700  -51205.103      323.66487     -50881.438      185.83518      187.48054      487.31544    
     62800  -51183.362      321.55831     -50861.803      185.81549      187.46092      487.50094    
     62900  -51162.346      320.17994     -50842.166      185.79488      187.44062      487.68644    
     63000  -51140.894      321.48419     -50819.41       185.77538      187.42107      487.87194    
     63100  -51118.143      322.02313     -50796.12       185.75586      187.39981      488.05745    
     63200  -51094.253      321.21549     -50773.038      185.73813      187.3784       488.24295    
     63300  -51075.055      323.50816     -50751.547      185.7194       187.35721      488.42845    
     63400  -51049.327      319.33303     -50729.994      185.69928      187.33719      488.61396    
     63500  -51030.015      321.7221      -50708.292      185.6785       187.3186       488.79946    
     63600  -51009.19       324.63479     -50684.555      185.65736      187.29925      488.98496    
     63700  -50987.238      324.43565     -50662.803      185.6381       187.27912      489.17046    
     63800  -50961.919      320.70534     -50641.213      185.61894      187.25812      489.35597    
     63900  -50943.217      323.01419     -50620.202      185.59915      187.23873      489.54147    
     64000  -50921.432      324.29081     -50597.141      185.57769      187.21952      489.72697    
     64100  -50898.455      325.24705     -50573.208      185.55721      187.20156      489.91247    
     64200  -50877.365      325.19834     -50552.167      185.53611      187.18183      490.09798    
     64300  -50851.729      322.35245     -50529.377      185.51745      187.1628       490.28348    
     64400  -50825.315      319.22912     -50506.086      185.49794      187.1416       490.46898    
     64500  -50802.095      319.44429     -50482.651      185.47889      187.12188      490.65448    
     64600  -50780.234      319.57584     -50460.659      185.45921      187.10199      490.83999    
     64700  -50759.623      321.83028     -50437.792      185.44024      187.08216      491.02549    
     64800  -50739.781      326.22112     -50413.56       185.42138      187.06187      491.21099    
     64900  -50714.577      324.72135     -50389.855      185.40231      187.04163      491.39649    
     65000  -50688.858      321.39544     -50367.463      185.38299      187.02224      491.582      
     65100  -50662.872      319.35783     -50343.515      185.36265      187.00292      491.7675     
     65200  -50645.284      324.68037     -50320.604      185.34315      186.98501      491.953      
     65300  -50618.434      321.20418     -50297.23       185.32241      186.96541      492.13851    
     65400  -50596.647      322.97578     -50273.672      185.30342      186.94753      492.32401    
     65500  -50574.482      323.61776     -50250.864      185.28261      186.92802      492.50951    
     65600  -50547.02       320.53836     -50226.482      185.26424      186.90984      492.69501    
     65700  -50528.797      325.94568     -50202.851      185.24554      186.88901      492.88052    
     65800  -50499.841      320.66062     -50179.18       185.22864      186.86934      493.06602    
     65900  -50476.78       321.90999     -50154.87       185.20923      186.84918      493.25152    
     66000  -50454.271      325.11642     -50129.155      185.1903       186.83222      493.43702    
     66100  -50429.283      323.93911     -50105.344      185.16975      186.81409      493.62253    
     66200  -50403.32       322.64896     -50080.671      185.15205      186.79552      493.80803    
     66300  -50378.321      322.43441     -50055.886      185.13552      186.77434      493.99353    
     66400  -50353.834      321.63815     -50032.196      185.11959      186.75356      494.17903    
     66500  -50331.653      323.9381      -50007.715      185.10158      186.73456      494.36454    
     66600  -50304.419      322.07352     -49982.346      185.08172      186.71771      494.55004    
     66700  -50278.525      320.95262     -49957.572      185.06208      186.7014       494.73554    
     66800  -50253.409      320.39852     -49933.01       185.0431       186.68383      494.92104    
     66900  -50229.07       320.78834     -49908.281      185.02509      186.66581      495.10655    
     67000  -50205.638      322.20871     -49883.429      185.00707      186.64824      495.29205    
     67100  -50184.696      325.55266     -49859.143      184.98841      186.63082      495.47755    
     67200  -50153.911      321.32022     -49832.591      184.97036      186.61328      495.66306    
     67300  -50130.08       323.41233     -49806.667      184.95346      186.59507      495.84856    
     67400  -50105.716      326.22258     -49779.493      184.93653      186.57683      496.03406    
     67500  -50072.52       319.53419     -49752.985      184.9193       186.55944      496.21956    
     67600  -50050.214      322.49175     -49727.722      184.90186      186.54216      496.40507    
     67700  -50024.852      322.71839     -49702.133      184.88495      186.52465      496.59057    
     67800  -50000.126      324.15726     -49675.969      184.86874      186.50664      496.77607    
     67900  -49970.35       320.64632     -49649.704      184.85208      186.48888      496.96157    
     68000  -49941.697      318.48506     -49623.212      184.83465      186.47265      497.14708    
     68100  -49919.294      322.21336     -49597.08       184.81667      186.45691      497.33258    
     68200  -49897.928      326.9352      -49570.992      184.79942      186.44091      497.51808    
     68300  -49864.454      319.88779     -49544.566      184.78295      186.42384      497.70358    
     68400  -49838.138      320.46955     -49517.668      184.76749      186.40715      497.88909    
     68500  -49815.691      325.37317     -49490.317      184.75067      186.39099      498.07459    
     68600  -49787.65       324.49396     -49463.156      184.73344      186.37652      498.26009    
     68700  -49765.04       329.65948     -49435.38       184.71643      186.36108      498.4456     
     68800  -49736.49       329.209       -49407.281      184.70188      186.34435      498.6311     
     68900  -49701.692      321.55448     -49380.138      184.68822      186.32557      498.8166     
     69000  -49675.595      322.69043     -49352.905      184.67479      186.30875      499.0021     
     69100  -49645.455      321.36207     -49324.092      184.65839      186.29271      499.18761    
     69200  -49624.469      328.58666     -49295.882      184.64247      186.2785       499.37311    
     69300  -49588.946      321.46945     -49267.477      184.6268       186.26308      499.55861    
     69400  -49564.551      323.85829     -49240.693      184.61186      186.24794      499.74411    
     69500  -49540.79       327.92908     -49212.861      184.59614      186.23341      499.92962    
     69600  -49508.157      322.94854     -49185.208      184.58047      186.21925      500.11512    
     69700  -49484.225      326.80637     -49157.418      184.56547      186.20482      500.30062    
     69800  -49454.372      324.75664     -49129.615      184.55128      186.18955      500.48612    
     69900  -49425.466      323.89419     -49101.571      184.53749      186.17456      500.67163    
     70000  -49396.009      324.73594     -49071.273      184.52218      186.16061      500.85713    
     70100  -49368.135      326.47292     -49041.662      184.50692      186.14833      501.04263    
     70200  -49339.13       327.36482     -49011.765      184.49238      186.13351      501.22813    
     70300  -49307.092      324.43905     -48982.653      184.48089      186.11811      501.41364    
     70400  -49283.189      328.82335     -48954.365      184.46811      186.10215      501.59914    
     70500  -49245.528      320.4298      -48925.098      184.45429      186.08886      501.78464    
     70600  -49220.556      325.77043     -48894.785      184.43969      186.07599      501.97015    
     70700  -49189.538      324.4057      -48865.132      184.42571      186.06242      502.15565    
     70800  -49159.907      323.5534      -48836.354      184.41269      186.04922      502.34115    
     70900  -49132.03       324.59257     -48807.437      184.39842      186.03605      502.52665    
     71000  -49105.348      327.55919     -48777.788      184.38475      186.0241       502.71216    
     71100  -49071.109      325.25592     -48745.853      184.37106      186.01127      502.89766    
     71200  -49036.663      321.41339     -48715.249      184.35856      185.99797      503.08316    
     71300  -49013.116      328.64735     -48684.469      184.3466       185.98491      503.26866    
     71400  -48982.84       330.11052     -48652.73       184.33348      185.97177      503.45417    
     71500  -48950.432      328.20958     -48622.222      184.32123      185.95956      503.63967    
     71600  -48922.657      329.90484     -48592.752      184.30896      185.94596      503.82517    
     71700  -48894.208      333.41286     -48560.795      184.29776      185.93311      504.01067    
     71800  -48860.799      328.56518     -48532.234      184.28537      185.92011      504.19618    
     71900  -48828.095      328.15752     -48499.937      184.27308      185.9088       504.38168    
     72000  -48798.068      330.94535     -48467.122      184.26031      185.89666      504.56718    
     72100  -48762.438      327.08554     -48435.353      184.24874      185.88456      504.75268    
     72200  -48733.008      328.55515     -48404.452      184.23663      185.87198      504.93819    
     72300  -48704.558      330.71292     -48373.845      184.22499      185.86077      505.12369    
     72400  -48672.434      330.17257     -48342.262      184.21206      185.84895      505.30919    
     72500  -48640.794      329.7539      -48311.04       184.20074      185.83849      505.4947     
     72600  -48613.938      333.89176     -48280.046      184.18797      185.82634      505.6802     
     72700  -48577.825      330.22634     -48247.599      184.17768      185.81575      505.8657     
     72800  -48543.648      327.23238     -48216.415      184.16604      185.80241      506.0512     
[...]
     81600  -59519.638      303.42395     -59216.214      184.17143      185.97734      522.37544    
     81700  -59518.676      308.65273     -59210.023      184.17976      185.99177      522.56094    
     81800  -59506.787      326.98015     -59179.807      184.19118      186.00932      522.74644    
     81900  -59528.517      362.41059     -59166.107      184.20282      186.03098      522.93194    
     82000  -59563.32       338.07874     -59225.241      184.21332      186.05513      523.11745    
     82100  -59586.74       300.84578     -59285.894      184.2208       186.07198      523.30295    
     82200  -59590.256      292.87186     -59297.384      184.23481      186.09112      523.48845    
     82300  -59597.139      334.75374     -59262.386      184.25249      186.11468      523.67395    
     82400  -59610.506      356.85862     -59253.648      184.26956      186.13849      523.85946    
     82500  -59619.339      316.74397     -59302.595      184.28337      186.15837      524.04496    
     82600  -59629.107      298.00327     -59331.104      184.29644      186.17713      524.23046    
     82700  -59621.671      306.59683     -59315.074      184.30898      186.19545      524.41596    
     82800  -59601.172      330.33687     -59270.835      184.31839      186.214        524.60147    
     82900  -59596.772      350.66697     -59246.105      184.33269      186.23478      524.78697    
     83000  -59609.12       328.6919      -59280.428      184.34657      186.24965      524.97247    
     83100  -59614.146      296.90076     -59317.245      184.36415      186.26836      525.15798    
     83200  -59622.942      311.56784     -59311.374      184.37826      186.28367      525.34348    
     83300  -59606.424      324.47833     -59281.946      184.39562      186.30269      525.52898    
     83400  -59571.186      315.69462     -59255.491      184.41124      186.32355      525.71448    
     83500  -59557.776      328.36196     -59229.414      184.42306      186.34475      525.89999    
     83600  -59584.131      357.72282     -59226.408      184.43667      186.36603      526.08549    
     83700  -59609.493      325.90397     -59283.589      184.45165      186.38676      526.27099    
     83800  -59611.087      285.99102     -59325.096      184.46525      186.40941      526.45649    
     83900  -59615.091      305.2906      -59309.801      184.47868      186.43403      526.642      
     84000  -59608.559      337.71484     -59270.844      184.48999      186.4589       526.8275     
     84100  -59618.912      353.23318     -59265.678      184.50423      186.4857       527.013      
     84200  -59643.822      329.21082     -59314.611      184.51738      186.5137       527.1985     
     84300  -59671.791      305.12713     -59366.664      184.52981      186.53789      527.38401    
     84400  -59683.934      299.87456     -59384.059      184.5448       186.56036      527.56951    
     84500  -59670.8        307.41687     -59363.383      184.56089      186.58145      527.75501    
     84600  -59651.095      327.70436     -59323.391      184.57668      186.60166      527.94051    
     84700  -59644.43       345.44161     -59298.988      184.59202      186.62658      528.12602    
     84800  -59636.913      321.21994     -59315.693      184.60431      186.65107      528.31152    
     84900  -59639.463      303.09066     -59336.372      184.61852      186.6799       528.49702    
     85000  -59626.073      301.20614     -59324.867      184.6305       186.70601      528.68253    
     85100  -59598.607      315.18843     -59283.419      184.64552      186.73391      528.86803    
     85200  -59553.378      315.6027      -59237.775      184.66107      186.75635      529.05353    
     85300  -59531.557      335.33351     -59196.223      184.67987      186.78199      529.23903    
     85400  -59525.151      338.83211     -59186.319      184.69566      186.80354      529.42454    
     85500  -59547.809      331.36371     -59216.445      184.71346      186.82828      529.61004    
     85600  -59558.254      305.08335     -59253.171      184.73069      186.85523      529.79554    
     85700  -59562.279      304.74199     -59257.537      184.74366      186.88162      529.98104    
     85800  -59567.827      330.14086     -59237.686      184.75754      186.91164      530.16655    
     85900  -59574.331      342.65732     -59231.674      184.76979      186.93841      530.35205    
     86000  -59604.272      337.10975     -59267.162      184.787        186.9709       530.53755    
     86100  -59629.742      310.55478     -59319.187      184.80288      186.99917      530.72305    
     86200  -59645.793      301.24503     -59344.548      184.82108      187.02798      530.90856    
     86300  -59643.256      309.31543     -59333.94       184.83661      187.05603      531.09406    
     86400  -59631.318      327.81604     -59303.502      184.85033      187.08539      531.27956    
     86500  -59626.913      340.42953     -59286.483      184.86293      187.11643      531.46507    
     86600  -59627.559      325.14098     -59302.418      184.8752       187.14861      531.65057    
     86700  -59627.371      307.61857     -59319.752      184.89016      187.17833      531.83607    
     86800  -59615.997      306.28012     -59309.717      184.90649      187.2047       532.02157    
     86900  -59589.737      316.47611     -59273.261      184.92468      187.23228      532.20708    
     87000  -59561.138      327.86046     -59233.278      184.94335      187.26075      532.39258    
     87100  -59543.313      328.677       -59214.636      184.95977      187.29084      532.57808    
     87200  -59550.825      327.8003      -59223.025      184.97431      187.32209      532.76358    
     87300  -59559.695      316.22631     -59243.469      184.98917      187.35556      532.94909    
     87400  -59569.454      312.10666     -59257.347      185.00332      187.38883      533.13459    
     87500  -59569.505      316.60071     -59252.904      185.01646      187.42119      533.32009    
     87600  -59571          331.29315     -59239.707      185.0327       187.45366      533.50559    
     87700  -59579.55       334.88119     -59244.669      185.04901      187.48201      533.6911     
     87800  -59603.28       324.69533     -59278.585      185.06982      187.51291      533.8766     
     87900  -59621.887      307.78179     -59314.105      185.08731      187.54169      534.0621     
     88000  -59637.207      309.76357     -59327.444      185.10344      187.57445      534.2476     
     88100  -59637.275      317.23217     -59320.043      185.11723      187.60551      534.43311    
     88200  -59630.506      327.14243     -59303.363      185.13356      187.63971      534.61861    
     88300  -59628.986      327.84707     -59301.139      185.14868      187.67221      534.80411    
     88400  -59633.289      318.33981     -59314.949      185.16329      187.7062       534.98962    
     88500  -59631.11       307.17557     -59323.934      185.17945      187.74246      535.17512    
     88600  -59625.136      314.06519     -59311.071      185.19252      187.77457      535.36062    
     88700  -59613.145      326.81924     -59286.326      185.2131       187.80974      535.54612    
     88800  -59589.201      321.74976     -59267.451      185.22956      187.83744      535.73163    
     88900  -59572.77       320.43397     -59252.336      185.25244      187.87044      535.91713    
     89000  -59556.444      323.39586     -59233.048      185.26814      187.90027      536.10263    
     89100  -59554.091      333.37312     -59220.717      185.28667      187.93716      536.28813    
     89200  -59557.905      327.86367     -59230.041      185.30066      187.97283      536.47364    
     89300  -59567.436      319.20769     -59248.229      185.3153       188.01102      536.65914    
     89400  -59568.671      311.52715     -59257.144      185.33048      188.04812      536.84464    
     89500  -59573.667      320.95313     -59252.714      185.34591      188.08292      537.03014    
     89600  -59581.5        333.08908     -59248.411      185.36603      188.11912      537.21565    
     89700  -59600.424      336.64956     -59263.775      185.3847       188.1516       537.40115    
     89800  -59619.422      321.039       -59298.383      185.40686      188.1893       537.58665    
     89900  -59628.002      303.98528     -59324.017      185.42524      188.22271      537.77215    
     90000  -59630.861      307.54238     -59323.319      185.44712      188.26022      537.95766    
     90100  -59620.432      322.39648     -59298.035      185.46711      188.29343      538.14316    
     90200  -59606.086      331.03986     -59275.046      185.49158      188.32906      538.32866    
     90300  -59602.359      328.66044     -59273.699      185.51304      188.36318      538.51417    
     90400  -59605.457      317.6731      -59287.784      185.53452      188.40147      538.69967    
     90500  -59599.29       306.4858      -59292.804      185.55019      188.4385       538.88517    
     90600  -59585.122      314.01859     -59271.103      185.56704      188.479        539.07067    
     90700  -59564.179      328.76408     -59235.415      185.58091      188.51662      539.25618    
     90800  -59554.31       337.75993     -59216.55       185.5976       188.55414      539.44168    
     90900  -59554.988      326.79049     -59228.198      185.61618      188.58615      539.62718    
     91000  -59566.108      314.42446     -59251.684      185.63869      188.6164       539.81268    
     91100  -59569.746      308.03385     -59261.712      185.66297      188.6427       539.99819    
     91200  -59570.776      319.73551     -59251.04       185.68801      188.67158      540.18369    
     91300  -59566.588      330.89413     -59235.694      185.70805      188.7018       540.36919    
     91400  -59573.157      330.69901     -59242.458      185.72687      188.73802      540.55469    
     91500  -59589.242      322.86997     -59266.372      185.74281      188.77261      540.7402     
     91600  -59603.712      314.06297     -59289.649      185.76077      188.80841      540.9257     
     91700  -59610.721      311.57549     -59299.146      185.7763       188.84187      541.1112     
     91800  -59609.036      316.22491     -59292.811      185.79368      188.87814      541.2967     
     91900  -59604.153      324.38038     -59279.772      185.80748      188.91056      541.48221    
     92000  -59602.496      326.92675     -59275.569      185.82567      188.94497      541.66771    
     92100  -59605.755      320.69944     -59285.056      185.8427       188.97683      541.85321    
     92200  -59608.743      313.81517     -59294.928      185.86134      189.00816      542.03872    
     92300  -59605.879      314.97679     -59290.902      185.8818       189.03832      542.22422    
     92400  -59590.87       316.6659      -59274.204      185.90394      189.06845      542.40972    
     92500  -59577.081      325.02224     -59252.059      185.92538      189.09646      542.59522    
     92600  -59563.361      328.35584     -59235.006      185.9462       189.12722      542.78073    
     92700  -59557.785      326.37686     -59231.408      185.96562      189.16026      542.96623    
     92800  -59561.195      321.2414      -59239.953      185.9845       189.19471      543.15173    
     92900  -59573.929      322.3888      -59251.541      186.00034      189.22947      543.33723    
     93000  -59574.487      314.58689     -59259.9        186.01709      189.2636       543.52274    
     93100  -59581.551      318.47127     -59263.08       186.03377      189.29592      543.70824    
     93200  -59584.411      321.57555     -59262.836      186.05223      189.32907      543.89374    
     93300  -59589.99       325.13096     -59264.859      186.07028      189.36171      544.07924    
     93400  -59597.589      325.16093     -59272.428      186.08991      189.39393      544.26475    
     93500  -59606.977      322.79909     -59284.178      186.10876      189.42466      544.45025    
     93600  -59609.954      313.79364     -59296.16       186.1292       189.45562      544.63575    
     93700  -59619.437      320.7438      -59298.693      186.14905      189.48518      544.82126    
     93800  -59614.363      319.08849     -59295.274      186.17002      189.51581      545.00676    
     93900  -59611.825      322.55068     -59289.275      186.18939      189.54529      545.19226    
     94000  -59601.394      320.28245     -59281.112      186.20956      189.57665      545.37776    
     94100  -59587.102      318.50343     -59268.598      186.226        189.60543      545.56327    
     94200  -59578.593      323.16504     -59255.428      186.24506      189.63868      545.74877    
     94300  -59577.522      328.26127     -59249.261      186.25744      189.66867      545.93427    
     94400  -59578.385      325.80444     -59252.581      186.27404      189.70426      546.11977    
     94500  -59581.024      320.90118     -59260.123      186.28544      189.73501      546.30528    
     94600  -59579.826      318.34184     -59261.484      186.30271      189.76897      546.49078    
     94700  -59576.72       318.82877     -59257.891      186.3184       189.79578      546.67628    
     94800  -59581.36       325.17572     -59256.185      186.33912      189.82604      546.86178    
     94900  -59586.604      323.56183     -59263.042      186.35489      189.85096      547.04729    
     95000  -59595.371      321.17256     -59274.198      186.37441      189.88033      547.23279    
     95100  -59604.323      318.33216     -59285.991      186.38805      189.90575      547.41829    
     95200  -59609.725      317.01427     -59292.711      186.40502      189.93584      547.60379    
     95300  -59616.153      321.66853     -59294.485      186.4163       189.96254      547.7893     
     95400  -59624.22       325.92079     -59298.3        186.43102      189.99429      547.9748     
     95500  -59630.307      323.22257     -59307.084      186.44285      190.02035      548.1603     
     95600  -59632.069      315.9517      -59316.117      186.45898      190.04971      548.34581    
     95700  -59632.713      316.11009     -59316.603      186.47107      190.07595      548.53131    
     95800  -59621.042      316.09363     -59304.949      186.48728      190.10685      548.71681    
     95900  -59613.558      325.91188     -59287.646      186.49906      190.13388      548.90231    
     96000  -59602.141      325.06945     -59277.072      186.51485      190.16581      549.08782    
     96100  -59595.771      321.24396     -59274.527      186.52877      190.1944       549.27332    
     96200  -59593.09       320.14218     -59272.948      186.54709      190.22238      549.45882    
     96300  -59585.402      317.18819     -59268.214      186.56489      190.24712      549.64432    
     96400  -59582.249      320.48439     -59261.765      186.58468      190.27427      549.82983    
     96500  -59582.706      325.25543     -59257.45       186.60274      190.29986      550.01533    
     96600  -59592.427      330.45517     -59261.971      186.62002      190.32781      550.20083    
     96700  -59593.511      318.66848     -59274.842      186.63697      190.3575       550.38633    
     96800  -59603.989      316.78068     -59287.208      186.65317      190.38794      550.57184    
     96900  -59610.96       318.8171      -59292.143      186.67005      190.4191       550.75734    
     97000  -59611.526      323.21904     -59288.307      186.68622      190.44909      550.94284    
     97100  -59607.735      324.55753     -59283.178      186.70598      190.47914      551.12834    
     97200  -59609.46       324.18415     -59285.276      186.72394      190.50626      551.31385    
     97300  -59618.273      322.29402     -59295.979      186.744        190.53441      551.49935    
     97400  -59622.933      317.70308     -59305.23       186.76031      190.56105      551.68485    
     97500  -59615.247      312.96292     -59302.284      186.77705      190.59087      551.87036    
     97600  -59607.202      321.70767     -59285.494      186.78855      190.6203       552.05586    
     97700  -59593.102      325.49282     -59267.61       186.80321      190.65338      552.24136    
     97800  -59582.902      324.78204     -59258.12       186.81705      190.68163      552.42686    
     97900  -59581.805      324.30706     -59257.498      186.83461      190.70919      552.61237    
     98000  -59581.79       320.56914     -59261.221      186.85382      190.73247      552.79787    
     98100  -59583.009      319.68946     -59263.32       186.87497      190.75405      552.98337    
     98200  -59576.445      317.11243     -59259.333      186.89595      190.77735      553.16887    
     98300  -59577.056      326.62296     -59250.433      186.9129       190.801        553.35438    
     98400  -59576.482      326.18626     -59250.295      186.92909      190.82877      553.53988    
     98500  -59588.925      325.84391     -59263.081      186.94355      190.85456      553.72538    
     98600  -59601.605      320.33749     -59281.267      186.95958      190.8792       553.91088    
     98700  -59609.419      314.83916     -59294.58       186.97732      190.90297      554.09639    
     98800  -59614.833      317.8953      -59296.938      186.99576      190.92579      554.28189    
     98900  -59612.733      321.75952     -59290.974      187.01229      190.94861      554.46739    
     99000  -59612.857      325.09635     -59287.761      187.0266       190.97346      554.6529     
     99100  -59620.421      324.05021     -59296.37       187.03889      190.99984      554.8384     
     99200  -59619.77       313.44269     -59306.327      187.05167      191.02705      555.0239     
     99300  -59624.242      317.26334     -59306.979      187.06527      191.05105      555.2094     
     99400  -59618.531      321.40759     -59297.124      187.08176      191.07411      555.39491    
     99500  -59606.258      324.05056     -59282.208      187.09905      191.09439      555.58041    
     99600  -59600.623      328.19246     -59272.43       187.11962      191.1142       555.76591    
     99700  -59595.204      323.13372     -59272.071      187.1383       191.13271      555.95141    
     99800  -59590.467      317.97458     -59272.492      187.15798      191.15592      556.13692    
     99900  -59588.977      321.6648      -59267.312      187.17179      191.17912      556.32242    
    100000  -59581.517      321.22016     -59260.297      187.18652      191.2078       556.50792    
Loop time of 1499.76 on 12 procs for 100000 steps with 8280 atoms

Performance: 5.761 ns/day, 4.166 hours/ns, 66.677 timesteps/s, 552.088 katom-step/s
92.9% CPU use with 12 MPI tasks x 1 OpenMP threads

MPI task timing breakdown:
Section |  min time  |  avg time  |  max time  |%varavg| %total
---------------------------------------------------------------
Pair    | 833.95     | 1150.1     | 1306.3     | 424.9 | 76.68
Neigh   | 5.4442     | 8.9159     | 11.165     |  70.1 |  0.59
Comm    | 150.48     | 302.72     | 612.04     | 806.4 | 20.18
Output  | 0.36534    | 0.39404    | 0.4312     |   3.2 |  0.03
Modify  | 30.4       | 36.244     | 46.987     | 119.7 |  2.42
Other   |            | 1.435      |            |       |  0.10

Nlocal:            690 ave        1411 max         155 min
Histogram: 2 2 2 0 1 2 0 0 1 2
Nghost:           2393 ave        3893 max         972 min
Histogram: 3 1 1 0 1 1 1 0 2 2
Neighs:              0 ave           0 max           0 min
Histogram: 12 0 0 0 0 0 0 0 0 0

Total # of neighbors = 0
Ave neighs/atom = 0
Neighbor list builds = 748
Dangerous builds = 0
Total wall time: 0:25:00
