# LAMMPS data file written by OVITO Basic 3.3.5
1320 atoms
3 atom types
-100 100 xlo xhi
-100 100 ylo yhi
-2.3312515 46.1661715 zlo zhi

Masses

1 12.0107  # CNT
2 12.0107  # C60
3 12.0107  # C60

Atoms  # atomic

1 1 8.021409 0.0 0.0
2 1 7.899546 -1.392903 0.0
3 1 6.946744 -4.010705 0.0
4 1 6.144756 -5.156062 0.0
5 1 4.010705 -6.946744 0.0
6 1 2.743484 -7.537659 0.0
7 1 0.0 -8.021409 0.0
8 1 -1.392903 -7.899546 0.0
9 1 -4.010705 -6.946744 0.0
10 1 -5.156062 -6.144756 0.0
11 1 -6.946744 -4.010705 0.0
12 1 -7.537659 -2.743484 0.0
13 1 -8.021409 0.0 0.0
14 1 -7.899546 1.392903 0.0
15 1 -6.946744 4.010705 0.0
16 1 -6.144756 5.156062 0.0
17 1 -4.010705 6.946744 0.0
18 1 -2.743484 7.537659 0.0
19 1 0.0 8.021409 0.0
20 1 1.392903 7.899546 0.0
21 1 4.010705 6.946744 0.0
22 1 5.156062 6.144756 0.0
23 1 6.946744 4.010705 0.0
24 1 7.537659 2.743484 0.0
25 1 7.748086 -2.076093 1.212436
26 1 7.269866 -3.389994 1.212436
27 1 5.671993 -5.671993 1.212436
28 1 4.600891 -6.570754 1.212436
29 1 2.076093 -7.748086 1.212436
30 1 0.699112 -7.990885 1.212436
31 1 -2.076093 -7.748086 1.212436
32 1 -3.389994 -7.269866 1.212436
33 1 -5.671993 -5.671993 1.212436
34 1 -6.570754 -4.600891 1.212436
35 1 -7.748086 -2.076093 1.212436
36 1 -7.990885 -0.699112 1.212436
37 1 -7.748086 2.076093 1.212436
38 1 -7.269866 3.389994 1.212436
39 1 -5.671993 5.671993 1.212436
40 1 -4.600891 6.570754 1.212436
41 1 -2.076093 7.748086 1.212436
42 1 -0.699112 7.990885 1.212436
43 1 2.076093 7.748086 1.212436
44 1 3.389994 7.269866 1.212436
45 1 5.671993 5.671993 1.212436
46 1 6.570754 4.600891 1.212436
47 1 7.748086 2.076093 1.212436
48 1 7.990885 0.699112 1.212436
49 1 6.946744 -4.010705 2.424871
50 1 6.144756 -5.156062 2.424871
51 1 4.010705 -6.946744 2.424871
52 1 2.743484 -7.537659 2.424871
53 1 0.0 -8.021409 2.424871
54 1 -1.392903 -7.899546 2.424871
55 1 -4.010705 -6.946744 2.424871
56 1 -5.156062 -6.144756 2.424871
57 1 -6.946744 -4.010705 2.424871
58 1 -7.537659 -2.743484 2.424871
59 1 -8.021409 0.0 2.424871
60 1 -7.899546 1.392903 2.424871
61 1 -6.946744 4.010705 2.424871
62 1 -6.144756 5.156062 2.424871
63 1 -4.010705 6.946744 2.424871
64 1 -2.743484 7.537659 2.424871
65 1 0.0 8.021409 2.424871
66 1 1.392903 7.899546 2.424871
67 1 4.010705 6.946744 2.424871
68 1 5.156062 6.144756 2.424871
69 1 6.946744 4.010705 2.424871
70 1 7.537659 2.743484 2.424871
71 1 8.021409 0.0 2.424871
72 1 7.899546 -1.392903 2.424871
73 1 5.671993 -5.671993 3.637307
74 1 4.600891 -6.570754 3.637307
75 1 2.076093 -7.748086 3.637307
76 1 0.699112 -7.990885 3.637307
77 1 -2.076093 -7.748086 3.637307
78 1 -3.389994 -7.269866 3.637307
79 1 -5.671993 -5.671993 3.637307
80 1 -6.570754 -4.600891 3.637307
81 1 -7.748086 -2.076093 3.637307
82 1 -7.990885 -0.699112 3.637307
83 1 -7.748086 2.076093 3.637307
84 1 -7.269866 3.389994 3.637307
85 1 -5.671993 5.671993 3.637307
86 1 -4.600891 6.570754 3.637307
87 1 -2.076093 7.748086 3.637307
88 1 -0.699112 7.990885 3.637307
89 1 2.076093 7.748086 3.637307
90 1 3.389994 7.269866 3.637307
91 1 5.671993 5.671993 3.637307
92 1 6.570754 4.600891 3.637307
93 1 7.748086 2.076093 3.637307
94 1 7.990885 0.699112 3.637307
95 1 7.748086 -2.076093 3.637307
96 1 7.269866 -3.389994 3.637307
97 1 4.010705 -6.946744 4.849742
98 1 2.743484 -7.537659 4.849742
99 1 0.0 -8.021409 4.849742
100 1 -1.392903 -7.899546 4.849742
101 1 -4.010705 -6.946744 4.849742
102 1 -5.156062 -6.144756 4.849742
103 1 -6.946744 -4.010705 4.849742
104 1 -7.537659 -2.743484 4.849742
105 1 -8.021409 0.0 4.849742
106 1 -7.899546 1.392903 4.849742
107 1 -6.946744 4.010705 4.849742
108 1 -6.144756 5.156062 4.849742
109 1 -4.010705 6.946744 4.849742
110 1 -2.743484 7.537659 4.849742
111 1 0.0 8.021409 4.849742
112 1 1.392903 7.899546 4.849742
113 1 4.010705 6.946744 4.849742
114 1 5.156062 6.144756 4.849742
115 1 6.946744 4.010705 4.849742
116 1 7.537659 2.743484 4.849742
117 1 8.021409 0.0 4.849742
118 1 7.899546 -1.392903 4.849742
119 1 6.946744 -4.010705 4.849742
120 1 6.144756 -5.156062 4.849742
121 1 2.076093 -7.748086 6.062178
122 1 0.699112 -7.990885 6.062178
123 1 -2.076093 -7.748086 6.062178
124 1 -3.389994 -7.269866 6.062178
125 1 -5.671993 -5.671993 6.062178
126 1 -6.570754 -4.600891 6.062178
127 1 -7.748086 -2.076093 6.062178
128 1 -7.990885 -0.699112 6.062178
129 1 -7.748086 2.076093 6.062178
130 1 -7.269866 3.389994 6.062178
131 1 -5.671993 5.671993 6.062178
132 1 -4.600891 6.570754 6.062178
133 1 -2.076093 7.748086 6.062178
134 1 -0.699112 7.990885 6.062178
135 1 2.076093 7.748086 6.062178
136 1 3.389994 7.269866 6.062178
137 1 5.671993 5.671993 6.062178
138 1 6.570754 4.600891 6.062178
139 1 7.748086 2.076093 6.062178
140 1 7.990885 0.699112 6.062178
141 1 7.748086 -2.076093 6.062178
142 1 7.269866 -3.389994 6.062178
143 1 5.671993 -5.671993 6.062178
144 1 4.600891 -6.570754 6.062178
145 1 0.0 -8.021409 7.274613
146 1 -1.392903 -7.899546 7.274613
147 1 -4.010705 -6.946744 7.274613
148 1 -5.156062 -6.144756 7.274613
149 1 -6.946744 -4.010705 7.274613
150 1 -7.537659 -2.743484 7.274613
151 1 -8.021409 0.0 7.274613
152 1 -7.899546 1.392903 7.274613
153 1 -6.946744 4.010705 7.274613
154 1 -6.144756 5.156062 7.274613
155 1 -4.010705 6.946744 7.274613
156 1 -2.743484 7.537659 7.274613
157 1 0.0 8.021409 7.274613
158 1 1.392903 7.899546 7.274613
159 1 4.010705 6.946744 7.274613
160 1 5.156062 6.144756 7.274613
161 1 6.946744 4.010705 7.274613
162 1 7.537659 2.743484 7.274613
163 1 8.021409 0.0 7.274613
164 1 7.899546 -1.392903 7.274613
165 1 6.946744 -4.010705 7.274613
166 1 6.144756 -5.156062 7.274613
167 1 4.010705 -6.946744 7.274613
168 1 2.743484 -7.537659 7.274613
169 1 -2.076093 -7.748086 8.487049
170 1 -3.389994 -7.269866 8.487049
171 1 -5.671993 -5.671993 8.487049
172 1 -6.570754 -4.600891 8.487049
173 1 -7.748086 -2.076093 8.487049
174 1 -7.990885 -0.699112 8.487049
175 1 -7.748086 2.076093 8.487049
176 1 -7.269866 3.389994 8.487049
177 1 -5.671993 5.671993 8.487049
178 1 -4.600891 6.570754 8.487049
179 1 -2.076093 7.748086 8.487049
180 1 -0.699112 7.990885 8.487049
181 1 2.076093 7.748086 8.487049
182 1 3.389994 7.269866 8.487049
183 1 5.671993 5.671993 8.487049
184 1 6.570754 4.600891 8.487049
185 1 7.748086 2.076093 8.487049
186 1 7.990885 0.699112 8.487049
187 1 7.748086 -2.076093 8.487049
188 1 7.269866 -3.389994 8.487049
189 1 5.671993 -5.671993 8.487049
190 1 4.600891 -6.570754 8.487049
191 1 2.076093 -7.748086 8.487049
192 1 0.699112 -7.990885 8.487049
193 1 -4.010705 -6.946744 9.699485
194 1 -5.156062 -6.144756 9.699485
195 1 -6.946744 -4.010705 9.699485
196 1 -7.537659 -2.743484 9.699485
197 1 -8.021409 0.0 9.699485
198 1 -7.899546 1.392903 9.699485
199 1 -6.946744 4.010705 9.699485
200 1 -6.144756 5.156062 9.699485
201 1 -4.010705 6.946744 9.699485
202 1 -2.743484 7.537659 9.699485
203 1 0.0 8.021409 9.699485
204 1 1.392903 7.899546 9.699485
205 1 4.010705 6.946744 9.699485
206 1 5.156062 6.144756 9.699485
207 1 6.946744 4.010705 9.699485
208 1 7.537659 2.743484 9.699485
209 1 8.021409 0.0 9.699485
210 1 7.899546 -1.392903 9.699485
211 1 6.946744 -4.010705 9.699485
212 1 6.144756 -5.156062 9.699485
213 1 4.010705 -6.946744 9.699485
214 1 2.743484 -7.537659 9.699485
215 1 0.0 -8.021409 9.699485
216 1 -1.392903 -7.899546 9.699485
217 1 -5.671993 -5.671993 10.91192
218 1 -6.570754 -4.600891 10.91192
219 1 -7.748086 -2.076093 10.91192
220 1 -7.990885 -0.699112 10.91192
221 1 -7.748086 2.076093 10.91192
222 1 -7.269866 3.389994 10.91192
223 1 -5.671993 5.671993 10.91192
224 1 -4.600891 6.570754 10.91192
225 1 -2.076093 7.748086 10.91192
226 1 -0.699112 7.990885 10.91192
227 1 2.076093 7.748086 10.91192
228 1 3.389994 7.269866 10.91192
229 1 5.671993 5.671993 10.91192
230 1 6.570754 4.600891 10.91192
231 1 7.748086 2.076093 10.91192
232 1 7.990885 0.699112 10.91192
233 1 7.748086 -2.076093 10.91192
234 1 7.269866 -3.389994 10.91192
235 1 5.671993 -5.671993 10.91192
236 1 4.600891 -6.570754 10.91192
237 1 2.076093 -7.748086 10.91192
238 1 0.699112 -7.990885 10.91192
239 1 -2.076093 -7.748086 10.91192
240 1 -3.389994 -7.269866 10.91192
241 1 -6.946744 -4.010705 12.124356
242 1 -7.537659 -2.743484 12.124356
243 1 -8.021409 0.0 12.124356
244 1 -7.899546 1.392903 12.124356
245 1 -6.946744 4.010705 12.124356
246 1 -6.144756 5.156062 12.124356
247 1 -4.010705 6.946744 12.124356
248 1 -2.743484 7.537659 12.124356
249 1 0.0 8.021409 12.124356
250 1 1.392903 7.899546 12.124356
251 1 4.010705 6.946744 12.124356
252 1 5.156062 6.144756 12.124356
253 1 6.946744 4.010705 12.124356
254 1 7.537659 2.743484 12.124356
255 1 8.021409 0.0 12.124356
256 1 7.899546 -1.392903 12.124356
257 1 6.946744 -4.010705 12.124356
258 1 6.144756 -5.156062 12.124356
259 1 4.010705 -6.946744 12.124356
260 1 2.743484 -7.537659 12.124356
261 1 0.0 -8.021409 12.124356
262 1 -1.392903 -7.899546 12.124356
263 1 -4.010705 -6.946744 12.124356
264 1 -5.156062 -6.144756 12.124356
265 1 -7.748086 -2.076093 13.336791
266 1 -7.990885 -0.699112 13.336791
267 1 -7.748086 2.076093 13.336791
268 1 -7.269866 3.389994 13.336791
269 1 -5.671993 5.671993 13.336791
270 1 -4.600891 6.570754 13.336791
271 1 -2.076093 7.748086 13.336791
272 1 -0.699112 7.990885 13.336791
273 1 2.076093 7.748086 13.336791
274 1 3.389994 7.269866 13.336791
275 1 5.671993 5.671993 13.336791
276 1 6.570754 4.600891 13.336791
277 1 7.748086 2.076093 13.336791
278 1 7.990885 0.699112 13.336791
279 1 7.748086 -2.076093 13.336791
280 1 7.269866 -3.389994 13.336791
281 1 5.671993 -5.671993 13.336791
282 1 4.600891 -6.570754 13.336791
283 1 2.076093 -7.748086 13.336791
284 1 0.699112 -7.990885 13.336791
285 1 -2.076093 -7.748086 13.336791
286 1 -3.389994 -7.269866 13.336791
287 1 -5.671993 -5.671993 13.336791
288 1 -6.570754 -4.600891 13.336791
289 1 -8.021409 0.0 14.549227
290 1 -7.899546 1.392903 14.549227
291 1 -6.946744 4.010705 14.549227
292 1 -6.144756 5.156062 14.549227
293 1 -4.010705 6.946744 14.549227
294 1 -2.743484 7.537659 14.549227
295 1 0.0 8.021409 14.549227
296 1 1.392903 7.899546 14.549227
297 1 4.010705 6.946744 14.549227
298 1 5.156062 6.144756 14.549227
299 1 6.946744 4.010705 14.549227
300 1 7.537659 2.743484 14.549227
301 1 8.021409 0.0 14.549227
302 1 7.899546 -1.392903 14.549227
303 1 6.946744 -4.010705 14.549227
304 1 6.144756 -5.156062 14.549227
305 1 4.010705 -6.946744 14.549227
306 1 2.743484 -7.537659 14.549227
307 1 0.0 -8.021409 14.549227
308 1 -1.392903 -7.899546 14.549227
309 1 -4.010705 -6.946744 14.549227
310 1 -5.156062 -6.144756 14.549227
311 1 -6.946744 -4.010705 14.549227
312 1 -7.537659 -2.743484 14.549227
313 1 -7.748086 2.076093 15.761662
314 1 -7.269866 3.389994 15.761662
315 1 -5.671993 5.671993 15.761662
316 1 -4.600891 6.570754 15.761662
317 1 -2.076093 7.748086 15.761662
318 1 -0.699112 7.990885 15.761662
319 1 2.076093 7.748086 15.761662
320 1 3.389994 7.269866 15.761662
321 1 5.671993 5.671993 15.761662
322 1 6.570754 4.600891 15.761662
323 1 7.748086 2.076093 15.761662
324 1 7.990885 0.699112 15.761662
325 1 7.748086 -2.076093 15.761662
326 1 7.269866 -3.389994 15.761662
327 1 5.671993 -5.671993 15.761662
328 1 4.600891 -6.570754 15.761662
329 1 2.076093 -7.748086 15.761662
330 1 0.699112 -7.990885 15.761662
331 1 -2.076093 -7.748086 15.761662
332 1 -3.389994 -7.269866 15.761662
333 1 -5.671993 -5.671993 15.761662
334 1 -6.570754 -4.600891 15.761662
335 1 -7.748086 -2.076093 15.761662
336 1 -7.990885 -0.699112 15.761662
337 1 -6.946744 4.010705 16.974098
338 1 -6.144756 5.156062 16.974098
339 1 -4.010705 6.946744 16.974098
340 1 -2.743484 7.537659 16.974098
341 1 0.0 8.021409 16.974098
342 1 1.392903 7.899546 16.974098
343 1 4.010705 6.946744 16.974098
344 1 5.156062 6.144756 16.974098
345 1 6.946744 4.010705 16.974098
346 1 7.537659 2.743484 16.974098
347 1 8.021409 0.0 16.974098
348 1 7.899546 -1.392903 16.974098
349 1 6.946744 -4.010705 16.974098
350 1 6.144756 -5.156062 16.974098
351 1 4.010705 -6.946744 16.974098
352 1 2.743484 -7.537659 16.974098
353 1 0.0 -8.021409 16.974098
354 1 -1.392903 -7.899546 16.974098
355 1 -4.010705 -6.946744 16.974098
356 1 -5.156062 -6.144756 16.974098
357 1 -6.946744 -4.010705 16.974098
358 1 -7.537659 -2.743484 16.974098
359 1 -8.021409 0.0 16.974098
360 1 -7.899546 1.392903 16.974098
361 1 -5.671993 5.671993 18.186533
362 1 -4.600891 6.570754 18.186533
363 1 -2.076093 7.748086 18.186533
364 1 -0.699112 7.990885 18.186533
365 1 2.076093 7.748086 18.186533
366 1 3.389994 7.269866 18.186533
367 1 5.671993 5.671993 18.186533
368 1 6.570754 4.600891 18.186533
369 1 7.748086 2.076093 18.186533
370 1 7.990885 0.699112 18.186533
371 1 7.748086 -2.076093 18.186533
372 1 7.269866 -3.389994 18.186533
373 1 5.671993 -5.671993 18.186533
374 1 4.600891 -6.570754 18.186533
375 1 2.076093 -7.748086 18.186533
376 1 0.699112 -7.990885 18.186533
377 1 -2.076093 -7.748086 18.186533
378 1 -3.389994 -7.269866 18.186533
379 1 -5.671993 -5.671993 18.186533
380 1 -6.570754 -4.600891 18.186533
381 1 -7.748086 -2.076093 18.186533
382 1 -7.990885 -0.699112 18.186533
383 1 -7.748086 2.076093 18.186533
384 1 -7.269866 3.389994 18.186533
385 1 -4.010705 6.946744 19.398969
386 1 -2.743484 7.537659 19.398969
387 1 0.0 8.021409 19.398969
388 1 1.392903 7.899546 19.398969
389 1 4.010705 6.946744 19.398969
390 1 5.156062 6.144756 19.398969
391 1 6.946744 4.010705 19.398969
392 1 7.537659 2.743484 19.398969
393 1 8.021409 0.0 19.398969
394 1 7.899546 -1.392903 19.398969
395 1 6.946744 -4.010705 19.398969
396 1 6.144756 -5.156062 19.398969
397 1 4.010705 -6.946744 19.398969
398 1 2.743484 -7.537659 19.398969
399 1 0.0 -8.021409 19.398969
400 1 -1.392903 -7.899546 19.398969
401 1 -4.010705 -6.946744 19.398969
402 1 -5.156062 -6.144756 19.398969
403 1 -6.946744 -4.010705 19.398969
404 1 -7.537659 -2.743484 19.398969
405 1 -8.021409 0.0 19.398969
406 1 -7.899546 1.392903 19.398969
407 1 -6.946744 4.010705 19.398969
408 1 -6.144756 5.156062 19.398969
409 1 -2.076093 7.748086 20.611405
410 1 -0.699112 7.990885 20.611405
411 1 2.076093 7.748086 20.611405
412 1 3.389994 7.269866 20.611405
413 1 5.671993 5.671993 20.611405
414 1 6.570754 4.600891 20.611405
415 1 7.748086 2.076093 20.611405
416 1 7.990885 0.699112 20.611405
417 1 7.748086 -2.076093 20.611405
418 1 7.269866 -3.389994 20.611405
419 1 5.671993 -5.671993 20.611405
420 1 4.600891 -6.570754 20.611405
421 1 2.076093 -7.748086 20.611405
422 1 0.699112 -7.990885 20.611405
423 1 -2.076093 -7.748086 20.611405
424 1 -3.389994 -7.269866 20.611405
425 1 -5.671993 -5.671993 20.611405
426 1 -6.570754 -4.600891 20.611405
427 1 -7.748086 -2.076093 20.611405
428 1 -7.990885 -0.699112 20.611405
429 1 -7.748086 2.076093 20.611405
430 1 -7.269866 3.389994 20.611405
431 1 -5.671993 5.671993 20.611405
432 1 -4.600891 6.570754 20.611405
433 1 0.0 8.021409 21.82384
434 1 1.392903 7.899546 21.82384
435 1 4.010705 6.946744 21.82384
436 1 5.156062 6.144756 21.82384
437 1 6.946744 4.010705 21.82384
438 1 7.537659 2.743484 21.82384
439 1 8.021409 0.0 21.82384
440 1 7.899546 -1.392903 21.82384
441 1 6.946744 -4.010705 21.82384
442 1 6.144756 -5.156062 21.82384
443 1 4.010705 -6.946744 21.82384
444 1 2.743484 -7.537659 21.82384
445 1 0.0 -8.021409 21.82384
446 1 -1.392903 -7.899546 21.82384
447 1 -4.010705 -6.946744 21.82384
448 1 -5.156062 -6.144756 21.82384
449 1 -6.946744 -4.010705 21.82384
450 1 -7.537659 -2.743484 21.82384
451 1 -8.021409 0.0 21.82384
452 1 -7.899546 1.392903 21.82384
453 1 -6.946744 4.010705 21.82384
454 1 -6.144756 5.156062 21.82384
455 1 -4.010705 6.946744 21.82384
456 1 -2.743484 7.537659 21.82384
457 1 2.076093 7.748086 23.036276
458 1 3.389994 7.269866 23.036276
459 1 5.671993 5.671993 23.036276
460 1 6.570754 4.600891 23.036276
461 1 7.748086 2.076093 23.036276
462 1 7.990885 0.699112 23.036276
463 1 7.748086 -2.076093 23.036276
464 1 7.269866 -3.389994 23.036276
465 1 5.671993 -5.671993 23.036276
466 1 4.600891 -6.570754 23.036276
467 1 2.076093 -7.748086 23.036276
468 1 0.699112 -7.990885 23.036276
469 1 -2.076093 -7.748086 23.036276
470 1 -3.389994 -7.269866 23.036276
471 1 -5.671993 -5.671993 23.036276
472 1 -6.570754 -4.600891 23.036276
473 1 -7.748086 -2.076093 23.036276
474 1 -7.990885 -0.699112 23.036276
475 1 -7.748086 2.076093 23.036276
476 1 -7.269866 3.389994 23.036276
477 1 -5.671993 5.671993 23.036276
478 1 -4.600891 6.570754 23.036276
479 1 -2.076093 7.748086 23.036276
480 1 -0.699112 7.990885 23.036276
481 1 4.010705 6.946744 24.248711
482 1 5.156062 6.144756 24.248711
483 1 6.946744 4.010705 24.248711
484 1 7.537659 2.743484 24.248711
485 1 8.021409 0.0 24.248711
486 1 7.899546 -1.392903 24.248711
487 1 6.946744 -4.010705 24.248711
488 1 6.144756 -5.156062 24.248711
489 1 4.010705 -6.946744 24.248711
490 1 2.743484 -7.537659 24.248711
491 1 0.0 -8.021409 24.248711
492 1 -1.392903 -7.899546 24.248711
493 1 -4.010705 -6.946744 24.248711
494 1 -5.156062 -6.144756 24.248711
495 1 -6.946744 -4.010705 24.248711
496 1 -7.537659 -2.743484 24.248711
497 1 -8.021409 0.0 24.248711
498 1 -7.899546 1.392903 24.248711
499 1 -6.946744 4.010705 24.248711
500 1 -6.144756 5.156062 24.248711
501 1 -4.010705 6.946744 24.248711
502 1 -2.743484 7.537659 24.248711
503 1 0.0 8.021409 24.248711
504 1 1.392903 7.899546 24.248711
505 1 5.671993 5.671993 25.461147
506 1 6.570754 4.600891 25.461147
507 1 7.748086 2.076093 25.461147
508 1 7.990885 0.699112 25.461147
509 1 7.748086 -2.076093 25.461147
510 1 7.269866 -3.389994 25.461147
511 1 5.671993 -5.671993 25.461147
512 1 4.600891 -6.570754 25.461147
513 1 2.076093 -7.748086 25.461147
514 1 0.699112 -7.990885 25.461147
515 1 -2.076093 -7.748086 25.461147
516 1 -3.389994 -7.269866 25.461147
517 1 -5.671993 -5.671993 25.461147
518 1 -6.570754 -4.600891 25.461147
519 1 -7.748086 -2.076093 25.461147
520 1 -7.990885 -0.699112 25.461147
521 1 -7.748086 2.076093 25.461147
522 1 -7.269866 3.389994 25.461147
523 1 -5.671993 5.671993 25.461147
524 1 -4.600891 6.570754 25.461147
525 1 -2.076093 7.748086 25.461147
526 1 -0.699112 7.990885 25.461147
527 1 2.076093 7.748086 25.461147
528 1 3.389994 7.269866 25.461147
529 1 6.946744 4.010705 26.673582
530 1 7.537659 2.743484 26.673582
531 1 8.021409 0.0 26.673582
532 1 7.899546 -1.392903 26.673582
533 1 6.946744 -4.010705 26.673582
534 1 6.144756 -5.156062 26.673582
535 1 4.010705 -6.946744 26.673582
536 1 2.743484 -7.537659 26.673582
537 1 0.0 -8.021409 26.673582
538 1 -1.392903 -7.899546 26.673582
539 1 -4.010705 -6.946744 26.673582
540 1 -5.156062 -6.144756 26.673582
541 1 -6.946744 -4.010705 26.673582
542 1 -7.537659 -2.743484 26.673582
543 1 -8.021409 0.0 26.673582
544 1 -7.899546 1.392903 26.673582
545 1 -6.946744 4.010705 26.673582
546 1 -6.144756 5.156062 26.673582
547 1 -4.010705 6.946744 26.673582
548 1 -2.743484 7.537659 26.673582
549 1 0.0 8.021409 26.673582
550 1 1.392903 7.899546 26.673582
551 1 4.010705 6.946744 26.673582
552 1 5.156062 6.144756 26.673582
553 1 7.748086 2.076093 27.886018
554 1 7.990885 0.699112 27.886018
555 1 7.748086 -2.076093 27.886018
556 1 7.269866 -3.389994 27.886018
557 1 5.671993 -5.671993 27.886018
558 1 4.600891 -6.570754 27.886018
559 1 2.076093 -7.748086 27.886018
560 1 0.699112 -7.990885 27.886018
561 1 -2.076093 -7.748086 27.886018
562 1 -3.389994 -7.269866 27.886018
563 1 -5.671993 -5.671993 27.886018
564 1 -6.570754 -4.600891 27.886018
565 1 -7.748086 -2.076093 27.886018
566 1 -7.990885 -0.699112 27.886018
567 1 -7.748086 2.076093 27.886018
568 1 -7.269866 3.389994 27.886018
569 1 -5.671993 5.671993 27.886018
570 1 -4.600891 6.570754 27.886018
571 1 -2.076093 7.748086 27.886018
572 1 -0.699112 7.990885 27.886018
573 1 2.076093 7.748086 27.886018
574 1 3.389994 7.269866 27.886018
575 1 5.671993 5.671993 27.886018
576 1 6.570754 4.600891 27.886018
577 1 8.021409 0.0 29.098454
578 1 7.899546 -1.392903 29.098454
579 1 6.946744 -4.010705 29.098454
580 1 6.144756 -5.156062 29.098454
581 1 4.010705 -6.946744 29.098454
582 1 2.743484 -7.537659 29.098454
583 1 0.0 -8.021409 29.098454
584 1 -1.392903 -7.899546 29.098454
585 1 -4.010705 -6.946744 29.098454
586 1 -5.156062 -6.144756 29.098454
587 1 -6.946744 -4.010705 29.098454
588 1 -7.537659 -2.743484 29.098454
589 1 -8.021409 0.0 29.098454
590 1 -7.899546 1.392903 29.098454
591 1 -6.946744 4.010705 29.098454
592 1 -6.144756 5.156062 29.098454
593 1 -4.010705 6.946744 29.098454
594 1 -2.743484 7.537659 29.098454
595 1 0.0 8.021409 29.098454
596 1 1.392903 7.899546 29.098454
597 1 4.010705 6.946744 29.098454
598 1 5.156062 6.144756 29.098454
599 1 6.946744 4.010705 29.098454
600 1 7.537659 2.743484 29.098454
601 1 7.748086 -2.076093 30.310889
602 1 7.269866 -3.389994 30.310889
603 1 5.671993 -5.671993 30.310889
604 1 4.600891 -6.570754 30.310889
605 1 2.076093 -7.748086 30.310889
606 1 0.699112 -7.990885 30.310889
607 1 -2.076093 -7.748086 30.310889
608 1 -3.389994 -7.269866 30.310889
609 1 -5.671993 -5.671993 30.310889
610 1 -6.570754 -4.600891 30.310889
611 1 -7.748086 -2.076093 30.310889
612 1 -7.990885 -0.699112 30.310889
613 1 -7.748086 2.076093 30.310889
614 1 -7.269866 3.389994 30.310889
615 1 -5.671993 5.671993 30.310889
616 1 -4.600891 6.570754 30.310889
617 1 -2.076093 7.748086 30.310889
618 1 -0.699112 7.990885 30.310889
619 1 2.076093 7.748086 30.310889
620 1 3.389994 7.269866 30.310889
621 1 5.671993 5.671993 30.310889
622 1 6.570754 4.600891 30.310889
623 1 7.748086 2.076093 30.310889
624 1 7.990885 0.699112 30.310889
625 1 6.946744 -4.010705 31.523325
626 1 6.144756 -5.156062 31.523325
627 1 4.010705 -6.946744 31.523325
628 1 2.743484 -7.537659 31.523325
629 1 0.0 -8.021409 31.523325
630 1 -1.392903 -7.899546 31.523325
631 1 -4.010705 -6.946744 31.523325
632 1 -5.156062 -6.144756 31.523325
633 1 -6.946744 -4.010705 31.523325
634 1 -7.537659 -2.743484 31.523325
635 1 -8.021409 0.0 31.523325
636 1 -7.899546 1.392903 31.523325
637 1 -6.946744 4.010705 31.523325
638 1 -6.144756 5.156062 31.523325
639 1 -4.010705 6.946744 31.523325
640 1 -2.743484 7.537659 31.523325
641 1 0.0 8.021409 31.523325
642 1 1.392903 7.899546 31.523325
643 1 4.010705 6.946744 31.523325
644 1 5.156062 6.144756 31.523325
645 1 6.946744 4.010705 31.523325
646 1 7.537659 2.743484 31.523325
647 1 8.021409 0.0 31.523325
648 1 7.899546 -1.392903 31.523325
649 1 5.671993 -5.671993 32.73576
650 1 4.600891 -6.570754 32.73576
651 1 2.076093 -7.748086 32.73576
652 1 0.699112 -7.990885 32.73576
653 1 -2.076093 -7.748086 32.73576
654 1 -3.389994 -7.269866 32.73576
655 1 -5.671993 -5.671993 32.73576
656 1 -6.570754 -4.600891 32.73576
657 1 -7.748086 -2.076093 32.73576
658 1 -7.990885 -0.699112 32.73576
659 1 -7.748086 2.076093 32.73576
660 1 -7.269866 3.389994 32.73576
661 1 -5.671993 5.671993 32.73576
662 1 -4.600891 6.570754 32.73576
663 1 -2.076093 7.748086 32.73576
664 1 -0.699112 7.990885 32.73576
665 1 2.076093 7.748086 32.73576
666 1 3.389994 7.269866 32.73576
667 1 5.671993 5.671993 32.73576
668 1 6.570754 4.600891 32.73576
669 1 7.748086 2.076093 32.73576
670 1 7.990885 0.699112 32.73576
671 1 7.748086 -2.076093 32.73576
672 1 7.269866 -3.389994 32.73576
673 1 4.010705 -6.946744 33.948196
674 1 2.743484 -7.537659 33.948196
675 1 0.0 -8.021409 33.948196
676 1 -1.392903 -7.899546 33.948196
677 1 -4.010705 -6.946744 33.948196
678 1 -5.156062 -6.144756 33.948196
679 1 -6.946744 -4.010705 33.948196
680 1 -7.537659 -2.743484 33.948196
681 1 -8.021409 0.0 33.948196
682 1 -7.899546 1.392903 33.948196
683 1 -6.946744 4.010705 33.948196
684 1 -6.144756 5.156062 33.948196
685 1 -4.010705 6.946744 33.948196
686 1 -2.743484 7.537659 33.948196
687 1 0.0 8.021409 33.948196
688 1 1.392903 7.899546 33.948196
689 1 4.010705 6.946744 33.948196
690 1 5.156062 6.144756 33.948196
691 1 6.946744 4.010705 33.948196
692 1 7.537659 2.743484 33.948196
693 1 8.021409 0.0 33.948196
694 1 7.899546 -1.392903 33.948196
695 1 6.946744 -4.010705 33.948196
696 1 6.144756 -5.156062 33.948196
697 1 2.076093 -7.748086 35.160631
698 1 0.699112 -7.990885 35.160631
699 1 -2.076093 -7.748086 35.160631
700 1 -3.389994 -7.269866 35.160631
701 1 -5.671993 -5.671993 35.160631
702 1 -6.570754 -4.600891 35.160631
703 1 -7.748086 -2.076093 35.160631
704 1 -7.990885 -0.699112 35.160631
705 1 -7.748086 2.076093 35.160631
706 1 -7.269866 3.389994 35.160631
707 1 -5.671993 5.671993 35.160631
708 1 -4.600891 6.570754 35.160631
709 1 -2.076093 7.748086 35.160631
710 1 -0.699112 7.990885 35.160631
711 1 2.076093 7.748086 35.160631
712 1 3.389994 7.269866 35.160631
713 1 5.671993 5.671993 35.160631
714 1 6.570754 4.600891 35.160631
715 1 7.748086 2.076093 35.160631
716 1 7.990885 0.699112 35.160631
717 1 7.748086 -2.076093 35.160631
718 1 7.269866 -3.389994 35.160631
719 1 5.671993 -5.671993 35.160631
720 1 4.600891 -6.570754 35.160631
721 1 0.0 -8.021409 36.373067
722 1 -1.392903 -7.899546 36.373067
723 1 -4.010705 -6.946744 36.373067
724 1 -5.156062 -6.144756 36.373067
725 1 -6.946744 -4.010705 36.373067
726 1 -7.537659 -2.743484 36.373067
727 1 -8.021409 0.0 36.373067
728 1 -7.899546 1.392903 36.373067
729 1 -6.946744 4.010705 36.373067
730 1 -6.144756 5.156062 36.373067
731 1 -4.010705 6.946744 36.373067
732 1 -2.743484 7.537659 36.373067
733 1 0.0 8.021409 36.373067
734 1 1.392903 7.899546 36.373067
735 1 4.010705 6.946744 36.373067
736 1 5.156062 6.144756 36.373067
737 1 6.946744 4.010705 36.373067
738 1 7.537659 2.743484 36.373067
739 1 8.021409 0.0 36.373067
740 1 7.899546 -1.392903 36.373067
741 1 6.946744 -4.010705 36.373067
742 1 6.144756 -5.156062 36.373067
743 1 4.010705 -6.946744 36.373067
744 1 2.743484 -7.537659 36.373067
745 1 -2.076093 -7.748086 37.585503
746 1 -3.389994 -7.269866 37.585503
747 1 -5.671993 -5.671993 37.585503
748 1 -6.570754 -4.600891 37.585503
749 1 -7.748086 -2.076093 37.585503
750 1 -7.990885 -0.699112 37.585503
751 1 -7.748086 2.076093 37.585503
752 1 -7.269866 3.389994 37.585503
753 1 -5.671993 5.671993 37.585503
754 1 -4.600891 6.570754 37.585503
755 1 -2.076093 7.748086 37.585503
756 1 -0.699112 7.990885 37.585503
757 1 2.076093 7.748086 37.585503
758 1 3.389994 7.269866 37.585503
759 1 5.671993 5.671993 37.585503
760 1 6.570754 4.600891 37.585503
761 1 7.748086 2.076093 37.585503
762 1 7.990885 0.699112 37.585503
763 1 7.748086 -2.076093 37.585503
764 1 7.269866 -3.389994 37.585503
765 1 5.671993 -5.671993 37.585503
766 1 4.600891 -6.570754 37.585503
767 1 2.076093 -7.748086 37.585503
768 1 0.699112 -7.990885 37.585503
769 1 -4.010705 -6.946744 38.797938
770 1 -5.156062 -6.144756 38.797938
771 1 -6.946744 -4.010705 38.797938
772 1 -7.537659 -2.743484 38.797938
773 1 -8.021409 0.0 38.797938
774 1 -7.899546 1.392903 38.797938
775 1 -6.946744 4.010705 38.797938
776 1 -6.144756 5.156062 38.797938
777 1 -4.010705 6.946744 38.797938
778 1 -2.743484 7.537659 38.797938
779 1 0.0 8.021409 38.797938
780 1 1.392903 7.899546 38.797938
781 1 4.010705 6.946744 38.797938
782 1 5.156062 6.144756 38.797938
783 1 6.946744 4.010705 38.797938
784 1 7.537659 2.743484 38.797938
785 1 8.021409 0.0 38.797938
786 1 7.899546 -1.392903 38.797938
787 1 6.946744 -4.010705 38.797938
788 1 6.144756 -5.156062 38.797938
789 1 4.010705 -6.946744 38.797938
790 1 2.743484 -7.537659 38.797938
791 1 0.0 -8.021409 38.797938
792 1 -1.392903 -7.899546 38.797938
793 1 -5.671993 -5.671993 40.010374
794 1 -6.570754 -4.600891 40.010374
795 1 -7.748086 -2.076093 40.010374
796 1 -7.990885 -0.699112 40.010374
797 1 -7.748086 2.076093 40.010374
798 1 -7.269866 3.389994 40.010374
799 1 -5.671993 5.671993 40.010374
800 1 -4.600891 6.570754 40.010374
801 1 -2.076093 7.748086 40.010374
802 1 -0.699112 7.990885 40.010374
803 1 2.076093 7.748086 40.010374
804 1 3.389994 7.269866 40.010374
805 1 5.671993 5.671993 40.010374
806 1 6.570754 4.600891 40.010374
807 1 7.748086 2.076093 40.010374
808 1 7.990885 0.699112 40.010374
809 1 7.748086 -2.076093 40.010374
810 1 7.269866 -3.389994 40.010374
811 1 5.671993 -5.671993 40.010374
812 1 4.600891 -6.570754 40.010374
813 1 2.076093 -7.748086 40.010374
814 1 0.699112 -7.990885 40.010374
815 1 -2.076093 -7.748086 40.010374
816 1 -3.389994 -7.269866 40.010374
817 1 -6.946744 -4.010705 41.222809
818 1 -7.537659 -2.743484 41.222809
819 1 -8.021409 0.0 41.222809
820 1 -7.899546 1.392903 41.222809
821 1 -6.946744 4.010705 41.222809
822 1 -6.144756 5.156062 41.222809
823 1 -4.010705 6.946744 41.222809
824 1 -2.743484 7.537659 41.222809
825 1 0.0 8.021409 41.222809
826 1 1.392903 7.899546 41.222809
827 1 4.010705 6.946744 41.222809
828 1 5.156062 6.144756 41.222809
829 1 6.946744 4.010705 41.222809
830 1 7.537659 2.743484 41.222809
831 1 8.021409 0.0 41.222809
832 1 7.899546 -1.392903 41.222809
833 1 6.946744 -4.010705 41.222809
834 1 6.144756 -5.156062 41.222809
835 1 4.010705 -6.946744 41.222809
836 1 2.743484 -7.537659 41.222809
837 1 0.0 -8.021409 41.222809
838 1 -1.392903 -7.899546 41.222809
839 1 -4.010705 -6.946744 41.222809
840 1 -5.156062 -6.144756 41.222809
841 1 -7.748086 -2.076093 42.435245
842 1 -7.990885 -0.699112 42.435245
843 1 -7.748086 2.076093 42.435245
844 1 -7.269866 3.389994 42.435245
845 1 -5.671993 5.671993 42.435245
846 1 -4.600891 6.570754 42.435245
847 1 -2.076093 7.748086 42.435245
848 1 -0.699112 7.990885 42.435245
849 1 2.076093 7.748086 42.435245
850 1 3.389994 7.269866 42.435245
851 1 5.671993 5.671993 42.435245
852 1 6.570754 4.600891 42.435245
853 1 7.748086 2.076093 42.435245
854 1 7.990885 0.699112 42.435245
855 1 7.748086 -2.076093 42.435245
856 1 7.269866 -3.389994 42.435245
857 1 5.671993 -5.671993 42.435245
858 1 4.600891 -6.570754 42.435245
859 1 2.076093 -7.748086 42.435245
860 1 0.699112 -7.990885 42.435245
861 1 -2.076093 -7.748086 42.435245
862 1 -3.389994 -7.269866 42.435245
863 1 -5.671993 -5.671993 42.435245
864 1 -6.570754 -4.600891 42.435245
865 1 -8.021409 0.0 43.64768
866 1 -7.899546 1.392903 43.64768
867 1 -6.946744 4.010705 43.64768
868 1 -6.144756 5.156062 43.64768
869 1 -4.010705 6.946744 43.64768
870 1 -2.743484 7.537659 43.64768
871 1 0.0 8.021409 43.64768
872 1 1.392903 7.899546 43.64768
873 1 4.010705 6.946744 43.64768
874 1 5.156062 6.144756 43.64768
875 1 6.946744 4.010705 43.64768
876 1 7.537659 2.743484 43.64768
877 1 8.021409 0.0 43.64768
878 1 7.899546 -1.392903 43.64768