LAMMPS (2 Aug 2023 - Update 3)
OMP_NUM_THREADS environment is not set. Defaulting to 1 thread. (src/comm.cpp:98)
  using 1 OpenMP thread(s) per MPI task
Reading data file ...
  orthogonal box = (-100 -100 -2.3312511) to (100 100 38.891558)
  4 by 4 by 1 MPI processor grid
  reading atoms ...
  784 atoms
  read_data CPU = 0.852 seconds
240 atoms in group SR
Deleted 240 atoms, new total = 544
Replication is creating a 1x1x19 = 19 times larger system...
  orthogonal box = (-100 -100 -2.3312511) to (100 100 780.90212)
  2 by 2 by 4 MPI processor grid
  10336 atoms
  replicate CPU = 0.852 seconds
System init for write_data ...
WARNING: Communication cutoff is 0.0. No ghost atoms will be generated. Atoms may get lost. (src/comm_brick.cpp:210)
Reading airebo potential file CH.airebo with DATE: 2011-10-25
Reading airebo potential file CH.airebo with DATE: 2011-10-25
Neighbor list info ...
  update: every = 1 steps, delay = 0 steps, check = yes
  max neighbors/atom: 2000, page size: 100000
  master list distance cutoff = 13.2
  ghost atom cutoff = 13.2
  binsize = 6.6, bins = 31 31 119
  5 neighbor lists, perpetual/occasional/extra = 5 0 0
  (1) pair airebo, perpetual, skip from (4)
      attributes: full, newton on, ghost
      pair build: skip/ghost
      stencil: none
      bin: none
  (2) pair airebo, perpetual, skip from (4)
      attributes: full, newton on, ghost
      pair build: skip/ghost
      stencil: none
      bin: none
  (3) pair lj/cut, perpetual, skip from (5)
      attributes: half, newton on, cut 13
      pair build: skip
      stencil: none
      bin: none
  (4) neighbor class addition, perpetual
      attributes: full, newton on, ghost
      pair build: full/bin/ghost
      stencil: full/ghost/bin/3d
      bin: standard
  (5) neighbor class addition, perpetual
      attributes: half, newton on, cut 13
      pair build: half/bin/atomonly/newton
      stencil: half/bin/3d
      bin: standard
Setting up sd style minimization ...
  Unit style    : metal
  Current step  : 0
Per MPI rank memory allocation (min/avg/max) = 10.26 | 10.31 | 10.64 Mbytes
   Step          Temp          E_pair         E_mol          TotEng         Press     
         0   0             -76328.422      0             -76328.422      30.842369    
         1   0             -76329.262      0             -76329.262      30.157447    
Loop time of 1.04799 on 16 procs for 1 steps with 10336 atoms

47.4% CPU use with 16 MPI tasks x 1 OpenMP threads

Minimization stats:
  Stopping criterion = energy tolerance
  Energy initial, next-to-last, final = 
     -76328.4221583258  -76328.4221583258  -76329.2618786915
  Force two-norm initial, final = 15.162525 3.2519192
  Force max component initial, final = 0.14888908 0.031904291
  Final line search alpha, max atom move = 0.67164094 0.021428228
  Iterations, force evaluations = 1 2

MPI task timing breakdown:
Section |  min time  |  avg time  |  max time  |%varavg| %total
---------------------------------------------------------------
Pair    | 0.022106   | 0.030545   | 0.062493   |   6.3 |  2.91
Neigh   | 0          | 0          | 0          |   0.0 |  0.00
Comm    | 0.16148    | 0.20567    | 0.25728    |   6.0 | 19.62
Output  | 0          | 0          | 0          |   0.0 |  0.00
Modify  | 0          | 0          | 0          |   0.0 |  0.00
Other   |            | 0.8118     |            |       | 77.46

Nlocal:            646 ave         729 max         563 min
Histogram: 4 0 0 0 4 4 0 0 0 4
Nghost:           2282 ave        2365 max        2199 min
Histogram: 4 0 0 0 4 4 0 0 0 4
Neighs:              0 ave           0 max           0 min
Histogram: 16 0 0 0 0 0 0 0 0 0

Total # of neighbors = 0
Ave neighs/atom = 0
Neighbor list builds = 0
Dangerous builds = 0
Setting up Verlet run ...
  Unit style    : metal
  Current step  : 1
  Time step     : 0.001
Per MPI rank memory allocation (min/avg/max) = 10.89 | 11.03 | 11.27 Mbytes
   Step          Temp          E_pair         E_mol          TotEng         Press          Volume    
         1   300           -76329.262      0             -75928.491      43.82102       31329335     
Loop time of 0.0504977 on 16 procs for 0 steps with 10336 atoms

41.5% CPU use with 16 MPI tasks x 1 OpenMP threads

MPI task timing breakdown:
Section |  min time  |  avg time  |  max time  |%varavg| %total
---------------------------------------------------------------
Pair    | 0          | 0          | 0          |   0.0 |  0.00
Neigh   | 0          | 0          | 0          |   0.0 |  0.00
Comm    | 0          | 0          | 0          |   0.0 |  0.00
Output  | 0          | 0          | 0          |   0.0 |  0.00
Modify  | 0          | 0          | 0          |   0.0 |  0.00
Other   |            | 0.0505     |            |       |100.00

Nlocal:            646 ave         648 max         644 min
Histogram: 8 0 0 0 0 0 0 0 0 8
Nghost:           2282 ave        2284 max        2280 min
Histogram: 8 0 0 0 0 0 0 0 0 8
Neighs:              0 ave           0 max           0 min
Histogram: 16 0 0 0 0 0 0 0 0 0

Total # of neighbors = 0
Ave neighs/atom = 0
Neighbor list builds = 0
Dangerous builds = 0
WARNING: New thermo_style command, previous thermo_modify settings will be lost (src/output.cpp:903)
WARNING: Dump 2 includes no atom IDs and is not sorted by ID. This may complicate post-processing tasks or visualization (src/dump.cpp:221)
Setting up Verlet run ...
  Unit style    : metal
  Current step  : 0
  Time step     : 0.001
Per MPI rank memory allocation (min/avg/max) = 12.39 | 12.53 | 12.77 Mbytes
   Step         PotEng         KinEng         TotEng           Lx             Ly             Lz      
         0  -76329.262      400.77108     -75928.491      200            200            783.23338    
       100  -76103.249      203.78222     -75899.467      200.00501      200.00641      783.62499    
       200  -76098.631      239.25744     -75859.373      200.00181      200.00523      784.01661    
       300  -76070.668      259.28131     -75811.386      199.99568      200.0007       784.40823    
       400  -76047.334      288.4323      -75758.901      200.00189      200.00873      784.79984    
       500  -76019.323      315.9324      -75703.39       199.99415      200.00265      785.19146    
       600  -75999.18       351.90764     -75647.272      199.9931       200.00261      785.58308    
       700  -75957.915      363.72209     -75594.193      199.99729      200.00792      785.97469    
       800  -75944.382      396.50847     -75547.873      199.98751      199.99907      786.36631    
       900  -75923.369      409.20825     -75514.161      199.99127      200.00342      786.75793    
      1000  -75910.982      408.45916     -75502.522      199.98961      200.00277      787.14954    
      1100  -75920.032      406.2946      -75513.737      199.98226      199.99605      787.54116    
      1200  -75928.47       395.24734     -75533.223      199.98663      200.00079      787.93278    
      1300  -75933.069      391.25565     -75541.814      199.98031      199.99559      788.32439    
      1400  -75930.452      398.6122      -75531.84       199.97746      199.99349      788.71601    
      1500  -75916.733      402.8047      -75513.928      199.97818      199.99583      789.10763    
      1600  -75910.217      407.78826     -75502.429      199.9698       199.98989      789.49924    
      1700  -75911.159      406.7656      -75504.393      199.96909      199.99177      789.89086    
      1800  -75915.326      399.30095     -75516.025      199.96419      199.98954      790.28248    
      1900  -75917.182      394.27561     -75522.906      199.9576       199.98617      790.67409    
      2000  -75909.363      392.24499     -75517.118      199.95597      199.98712      791.06571    
      2100  -75905.106      401.77095     -75503.335      199.9489       199.98256      791.45733    
      2200  -75897.327      406.26799     -75491.059      199.94547      199.98114      791.84894    
      2300  -75895.689      406.67357     -75489.016      199.94111      199.97777      792.24056    
      2400  -75899.454      402.98503     -75496.469      199.93585      199.97323      792.63218    
      2500  -75897.62       394.6561      -75502.964      199.93291      199.97032      793.02379    
      2600  -75893.925      393.40038     -75500.525      199.92666      199.96388      793.41541    
      2700  -75887.63       399.30034     -75488.33       199.92387      199.96087      793.80703    
      2800  -75877.236      402.8647      -75474.371      199.9178       199.95489      794.19864    
      2900  -75874.789      406.87778     -75467.911      199.91195      199.95007      794.59026    
      3000  -75875.819      403.18748     -75472.631      199.90755      199.94679      794.98188    
      3100  -75878.734      399.66958     -75479.065      199.89876      199.93993      795.37349    
      3200  -75875.871      397.56395     -75478.307      199.89344      199.93743      795.76511    
      3300  -75863.683      394.87874     -75468.804      199.88499      199.93214      796.15673    
      3400  -75856.902      401.71408     -75455.188      199.87624      199.92709      796.54834    
      3500  -75849.892      404.17176     -75445.72       199.86958      199.92446      796.93996    
      3600  -75847.214      402.11268     -75445.102      199.85863      199.91712      797.33158    
      3700  -75847.735      399.00877     -75448.727      199.85187      199.91362      797.72319    
      3800  -75844.019      394.12908     -75449.89       199.84247      199.90707      798.11481    
      3900  -75841.84       397.60212     -75444.238      199.83308      199.89989      798.50643    
      4000  -75834.802      402.32317     -75432.479      199.82638      199.89513      798.89804    
      4100  -75824.33       403.93217     -75420.398      199.81505      199.88562      799.28966    
      4200  -75821.001      406.01899     -75414.982      199.80818      199.87977      799.68128    
      4300  -75819.544      402.90527     -75416.638      199.79866      199.87116      800.07289    
      4400  -75816.528      397.60371     -75418.925      199.78818      199.86232      800.46451    
      4500  -75815.007      400.01453     -75414.992      199.78107      199.85628      800.85613    
      4600  -75802.328      399.45881     -75402.869      199.76851      199.84526      801.24774    
      4700  -75793.235      403.17462     -75390.06       199.76001      199.83886      801.63936    
      4800  -75787.343      405.30398     -75382.039      199.74953      199.83022      802.03098    
      4900  -75783.833      403.33948     -75380.494      199.73703      199.81963      802.42259    
      5000  -75780.914      398.65828     -75382.256      199.72854      199.81382      802.81421    
      5100  -75774.798      394.26631     -75380.532      199.71454      199.80219      803.20583    
      5200  -75769.182      398.75407     -75370.428      199.70438      199.79385      803.59744    
      5300  -75761.509      405.11123     -75356.398      199.69318      199.78519      803.98906    
      5400  -75747.923      402.93997     -75344.983      199.67917      199.773        804.38068    
      5500  -75743.655      403.32413     -75340.331      199.67002      199.76487      804.77229    
      5600  -75743.09       403.05034     -75340.039      199.65606      199.75237      805.16391    
      5700  -75741.184      401.09477     -75340.089      199.6438       199.74125      805.55553    
      5800  -75732.555      399.38788     -75333.167      199.63268      199.73075      805.94714    
      5900  -75722.111      402.76037     -75319.35       199.61747      199.71676      806.33876    
      6000  -75707.125      401.74309     -75305.382      199.60617      199.70661      806.73038    
      6100  -75701.306      404.16819     -75297.138      199.59158      199.69256      807.12199    
      6200  -75698.742      402.3163      -75296.425      199.57754      199.67987      807.51361    
      6300  -75692.463      396.10923     -75296.354      199.56427      199.668        807.90523    
      6400  -75691.704      401.57548     -75290.128      199.54818      199.65283      808.29684    
      6500  -75674.504      396.81729     -75277.687      199.5346       199.64088      808.68846    
      6600  -75666.685      403.76878     -75262.916      199.5181       199.62663      809.08008    
      6700  -75655.625      403.73403     -75251.891      199.50193      199.6127       809.47169    
      6800  -75652.134      403.63578     -75248.498      199.48623      199.59941      809.86331    
      6900  -75644.378      397.2499      -75247.129      199.46795      199.58429      810.25493    
      7000  -75637.929      396.8679      -75241.062      199.45158      199.5705       810.64654    
      7100  -75627.47       398.21962     -75229.25       199.43331      199.55456      811.03816    
      7200  -75616.057      400.89954     -75215.158      199.416        199.53951      811.42978    
      7300  -75605.5        402.12358     -75203.376      199.39778      199.52312      811.82139    
      7400  -75604.5        407.5251      -75196.975      199.37897      199.50553      812.21301    
      7500  -75596.374      402.38047     -75193.994      199.36128      199.48913      812.60463    
      7600  -75585.716      396.74077     -75188.975      199.34074      199.47         812.99624    
      7700  -75574.995      395.32341     -75179.672      199.32214      199.45254      813.38786    
      7800  -75571.469      406.01972     -75165.45       199.30203      199.43385      813.77948    
      7900  -75553.645      402.02466     -75151.621      199.28068      199.41403      814.17109    
      8000  -75552.723      408.79788     -75143.926      199.26144      199.39599      814.56271    
      8100  -75544.107      403.01355     -75141.094      199.23856      199.37504      814.95433    
      8200  -75529.527      393.42444     -75136.102      199.21747      199.35619      815.34594    
      8300  -75522.254      396.1624      -75126.091      199.19544      199.33628      815.73756    
      8400  -75511.3        399.49436     -75111.806      199.17163      199.31491      816.12918    
      8500  -75499.185      401.82319     -75097.361      199.15003      199.29652      816.52079    
      8600  -75489.292      402.53887     -75086.753      199.12501      199.27435      816.91241    
      8700  -75483.368      403.0255      -75080.342      199.10181      199.25402      817.30403    
      8800  -75473.89       399.07959     -75074.811      199.07785      199.2328       817.69564    
      8900  -75461.338      396.0662      -75065.272      199.05241      199.20925      818.08726    
      9000  -75448.628      397.56167     -75051.067      199.02967      199.18765      818.47888    
      9100  -75437.554      402.25123     -75035.303      199.00361      199.16267      818.87049    
      9200  -75428.768      405.73817     -75023.03       198.97913      199.13881      819.26211    
      9300  -75419.072      403.23095     -75015.841      198.95418      199.11404      819.65373    
      9400  -75414.295      404.68976     -75009.606      198.92689      199.08721      820.04534    
      9500  -75397.825      397.20521     -75000.62       198.90156      199.06226      820.43696    
      9600  -75388.082      401.48067     -74986.601      198.87335      199.0347       820.82858    
      9700  -75370.473      399.43925     -74971.034      198.8456       199.00764      821.22019    
      9800  -75361.677      403.44455     -74958.233      198.81737      198.98072      821.61181    
      9900  -75348.898      398.74548     -74950.152      198.78685      198.9516       822.00343    
     10000  -75342.548      398.32847     -74944.219      198.75768      198.9245       822.39504    
     10100  -75327.3        392.26231     -74935.037      198.72552      198.895        822.78666    
     10200  -75321.653      400.62804     -74921.025      198.6942       198.86643      823.17828    
     10300  -75301.54       397.17819     -74904.362      198.66218      198.83723      823.56989    
     10400  -75293.298      403.3057      -74889.993      198.62823      198.80636      823.96151    
     10500  -75285.664      404.61556     -74881.048      198.59637      198.77713      824.35313    
     10600  -75274.607      399.81913     -74874.787      198.56165      198.74472      824.74474    
     10700  -75265.1        398.91147     -74866.189      198.52839      198.71364      825.13636    
     10800  -75252.025      398.20239     -74853.823      198.49467      198.68147      825.52798    
     10900  -75236.98       401.1683      -74835.812      198.45954      198.64744      825.91959    
     11000  -75224.963      405.56353     -74819.4        198.42628      198.61547      826.31121    
     11100  -75213.411      404.30223     -74809.109      198.39026      198.58057      826.70283    
     11200  -75201.098      398.41426     -74802.684      198.35554      198.54695      827.09444    
     11300  -75193.79       402.70098     -74791.089      198.32014      198.51333      827.48606    
     11400  -75178.947      401.47622     -74777.471      198.28281      198.47803      827.87768    
     11500  -75164.294      401.98934     -74762.305      198.24736      198.4449       828.26929    
     11600  -75141.619      396.5959      -74745.024      198.20904      198.40985      828.66091    
     11700  -75133.057      403.55961     -74729.497      198.17182      198.37599      829.05253    
     11800  -75122.356      400.65936     -74721.696      198.13409      198.34189      829.44414    
     11900  -75112.258      397.46192     -74714.796      198.09497      198.30656      829.83576    
     12000  -75095.336      393.86592     -74701.47       198.05749      198.27301      830.22738    
     12100  -75082.769      400.41027     -74682.359      198.01802      198.23701      830.61899    
     12200  -75066.498      401.20155     -74665.297      197.97973      198.20205      831.01061    
     12300  -75056.021      403.43012     -74652.591      197.94118      198.16665      831.40223    
     12400  -75044.244      403.88089     -74640.363      197.90117      198.1295       831.79384    
     12500  -75025.989      397.44014     -74628.549      197.86375      198.09404      832.18546    
     12600  -75020.526      404.52696     -74615.999      197.82381      198.0559       832.57708    
     12700  -75001.026      396.77831     -74604.248      197.78494      198.01885      832.96869    
     12800  -74989.251      398.13812     -74591.113      197.74658      197.98191      833.36031    
     12900  -74973.085      400.06378     -74573.022      197.70578      197.94294      833.75193    
     13000  -74954.104      400.26311     -74553.841      197.66718      197.90679      834.14354    
     13100  -74937.532      398.77755     -74538.754      197.62638      197.86907      834.53516    
     13200  -74929.692      397.93084     -74531.761      197.58536      197.83181      834.92678    
     13300  -74918.664      396.02564     -74522.638      197.54522      197.79634      835.31839    
     13400  -74903.626      398.39892     -74505.227      197.50273      197.75905      835.71001    
     13500  -74887.095      401.10999     -74485.985      197.46191      197.7235       836.10163    
     13600  -74869.1        401.00602     -74468.094      197.4206       197.6879       836.49324    
     13700  -74857.685      404.30241     -74453.383      197.37805      197.65081      836.88486    
     13800  -74840.624      400.66221     -74439.961      197.33829      197.61582      837.27648    
     13900  -74827.853      401.77589     -74426.077      197.2969       197.57834      837.66809    
     14000  -74811.023      399.24869     -74411.774      197.2567       197.54178      838.05971    
     14100  -74798.032      399.95816     -74398.074      197.21755      197.50522      838.45133    
     14200  -74781.552      395.75189     -74385.8        197.17739      197.46701      838.84294    
     14300  -74769.776      398.10115     -74371.675      197.13952      197.43035      839.23456    
     14400  -74748.638      397.00273     -74351.635      197.10108      197.3929       839.62618    
     14500  -74738.308      407.56845     -74330.74       197.06275      197.35508      840.01779    
     14600  -74711.177      396.27671     -74314.9        197.02645      197.31964      840.40941    
     14700  -74704.65       399.76578     -74304.885      196.9878       197.28228      840.80103    
     14800  -74693.125      397.58917     -74295.536      196.95091      197.2472       841.19264    
     14900  -74673.764      396.22887     -74277.535      196.91408      197.21284      841.58426    
     15000  -74662.215      406.13245     -74256.082      196.87556      197.17767      841.97588    
     15100  -74639.783      402.83123     -74236.952      196.83987      197.14556      842.3675     
     15200  -74626.901      406.49904     -74220.402      196.80167      197.11187      842.75911    
     15300  -74606.852      397.51449     -74209.338      196.76492      197.0796       843.15073    
     15400  -74592.615      393.35956     -74199.255      196.72911      197.04829      843.54235    
     15500  -74578.127      399.23781     -74178.89       196.69181      197.01491      843.93396    
     15600  -74554.937      398.15885     -74156.778      196.65778      196.98435      844.32558    
     15700  -74540.562      401.61406     -74138.948      196.62258      196.95147      844.7172     
     15800  -74526.76       403.52482     -74123.236      196.58864      196.91902      845.10881    
     15900  -74508.601      397.92089     -74110.68       196.55671      196.88789      845.50043    
     16000  -74493.509      393.65243     -74099.856      196.52326      196.85452      845.89205    
     16100  -74482.098      400.3006      -74081.798      196.49278      196.8238       846.28366    
     16200  -74454.623      399.05526     -74055.567      196.4617       196.79235      846.67528    
     16300  -74440.183      403.00392     -74037.179      196.43114      196.76132      847.0669     
     16400  -74424.13       401.4827      -74022.647      196.40173      196.7322       847.45851    
     16500  -74409.876      398.83602     -74011.04       196.37119      196.70269      847.85013    
     16600  -74393.583      395.86351     -73997.719      196.34215      196.67532      848.24175    
     16700  -74377.931      401.89024     -73976.041      196.3124       196.64806      848.63336    
     16800  -74348.559      398.51382     -73950.045      196.28369      196.62235      849.02498    
     16900  -74340.398      407.40728     -73932.991      196.25494      196.59707      849.4166     
     17000  -74321.032      400.81561     -73920.217      196.22656      196.57216      849.80821    
     17100  -74303.902      397.45855     -73906.443      196.19947      196.54857      850.19983    
     17200  -74284.615      398.23429     -73886.381      196.17199      196.52406      850.59145    
     17300  -74261.855      402.40056     -73859.454      196.14657      196.50039      850.98306    
     17400  -74247.529      406.78501     -73840.744      196.12155      196.47647      851.37468    
     17500  -74228.055      400.94799     -73827.107      196.09675      196.45223      851.7663     
     17600  -74211.566      398.36647     -73813.2        196.07372      196.42865      852.15791    
     17700  -74193.214      398.40087     -73794.814      196.05064      196.40411      852.54953    
     17800  -74169.315      401.33495     -73767.98       196.02886      196.38078      852.94115    
     17900  -74152.048      406.081       -73745.967      196.00677      196.35695      853.33276    
     18000  -74138.365      406.47368     -73731.892      195.98544      196.33391      853.72438    
     18100  -74116.648      398.09341     -73718.554      195.96416      196.31135      854.116      
     18200  -74100.726      399.51153     -73701.215      195.94227      196.28939      854.50761    
     18300  -74081.248      399.87556     -73681.373      195.92101      196.26876      854.89923    
     18400  -74059.411      405.02831     -73654.382      195.8989       196.24812      855.29085    
     18500  -74038.735      405.98449     -73632.75       195.87703      196.22887      855.68246    
     18600  -74020.512      400.95147     -73619.56       195.85517      196.21032      856.07408    
     18700  -74006.417      401.64993     -73604.767      195.83314      196.19137      856.4657     
     18800  -73990.291      402.11972     -73588.172      195.81282      196.17392      856.85731    
     18900  -73972.607      401.62456     -73570.983      195.79171      196.15532      857.24893    
     19000  -73949.882      395.33577     -73554.546      195.77271      196.13805      857.64055    
     19100  -73935.783      397.90737     -73537.876      195.75378      196.11986      858.03216    
     19200  -73909.952      395.19993     -73514.752      195.73584      196.10172      858.42378    
     19300  -73889.935      400.72114     -73489.214      195.71968      196.08466      858.8154     
     19400  -73872.92       403.82814     -73469.092      195.70274      196.06592      859.20701    
     19500  -73853.451      400.40308     -73453.048      195.68808      196.04914      859.59863    
     19600  -73837.017      396.0217      -73440.995      195.67226      196.03145      859.99025    
     19700  -73824.276      399.8301      -73424.446      195.65715      196.01501      860.38186    
     19800  -73793          399.17298     -73393.827      195.64254      195.99913      860.77348    
     19900  -73770.574      399.93177     -73370.642      195.62645      195.98322      861.1651     
     20000  -73750.228      400.88191     -73349.346      195.61143      195.96963      861.55671    
     20100  -73729.749      399.76909     -73329.98       195.59477      195.95494      861.94833    
     20200  -73712.623      398.39731     -73314.226      195.57913      195.94209      862.33995    
     20300  -73693.638      395.26383     -73298.374      195.56272      195.9297       862.73156    
     20400  -73674.273      397.23405     -73277.039      195.54593      195.91691      863.12318    
     20500  -73648.991      401.45882     -73247.532      195.53101      195.90549      863.5148     
     20600  -73629.871      403.78371     -73226.087      195.51441      195.89263      863.90641    
     20700  -73611.847      402.96617     -73208.881      195.49989      195.88112      864.29803    
     20800  -73587.832      394.08515     -73193.747      195.48502      195.86813      864.68965    
     20900  -73574.733      398.50383     -73176.229      195.47077      195.85498      865.08126    
     21000  -73552.585      404.11797     -73148.467      195.45763      195.84254      865.47288    
     21100  -73525.422      403.67327     -73121.749      195.44346      195.82799      865.8645     
     21200  -73501.85       401.26906     -73100.581      195.43169      195.81518      866.25611    
     21300  -73482.435      398.70668     -73083.729      195.41809      195.8006       866.64773    
     21400  -73469.358      400.51225     -73068.846      195.40526      195.78695      867.03935    
     21500  -73446.172      397.521       -73048.651      195.39275      195.77405      867.43096    
     21600  -73423.397      404.57646     -73018.82       195.37853      195.75991      867.82258    
     21700  -73397.767      403.05712     -72994.709      195.3662       195.74867      868.2142     
     21800  -73379.209      401.52165     -72977.687      195.35136      195.73575      868.60581    
     21900  -73361.233      399.66315     -72961.57       195.3376       195.72446      868.99743    
     22000  -73339.213      397.66937     -72941.544      195.3237       195.71368      869.38905    
     22100  -73315.953      400.26044     -72915.693      195.30851      195.702        869.78066    
     22200  -73290.255      403.35688     -72886.898      195.29554      195.69245      870.17228    
     22300  -73269.779      402.63189     -72867.148      195.28015      195.68005      870.5639     
     22400  -73250.439      400.00108     -72850.438      195.26743      195.67012      870.95551    
     22500  -73230.212      398.90337     -72831.308      195.25349      195.65799      871.34713    
     22600  -73208.461      400.74003     -72807.721      195.2402       195.64552      871.73875    
     22700  -73180.79       405.84416     -72774.945      195.2287       195.63386      872.13036    
     22800  -73154.969      401.80543     -72753.163      195.21491      195.61893      872.52198    
     22900  -73136.983      398.96342     -72738.02       195.20428      195.60648      872.9136     
     23000  -73116.331      396.08521     -72720.246      195.19139      195.59098      873.30521    
     23100  -73096.905      398.19817     -72698.707      195.17977      195.57684      873.69683    
     23200  -73074.207      402.9255      -72671.282      195.16791      195.56304      874.08845    
     23300  -73048.958      405.61367     -72643.345      195.15449      195.54788      874.48006    
     23400  -73027.493      403.30989     -72624.183      195.14297      195.53564      874.87168    
     23500  -73010.5        404.60328     -72605.897      195.12789      195.5212       875.2633     
     23600  -72986.345      399.58232     -72586.763      195.11484      195.50973      875.65491    
     23700  -72968.885      402.72083     -72566.164      195.10006      195.49723      876.04653    
     23800  -72944.496      401.89076     -72542.605      195.08502      195.48541      876.43815    
     23900  -72915.911      403.85512     -72512.056      195.07125      195.47497      876.82976    
     24000  -72891.169      403.30512     -72487.864      195.05526      195.46198      877.22138    
     24100  -72874.735      403.94116     -72470.794      195.04252      195.45188      877.613      
     24200  -72854.934      402.69138     -72452.242      195.02695      195.43842      878.00461    
     24300  -72827.742      398.31228     -72429.43       195.01415      195.42674      878.39623    
     24400  -72802.879      398.65296     -72404.226      195.0012       195.41357      878.78785    
     24500  -72780.308      401.97537     -72378.333      194.98766      195.3987       879.17946    
     24600  -72754.735      401.66476     -72353.07       194.97702      195.38594      879.57108    
     24700  -72733.479      410.7736      -72322.705      194.96335      195.36952      879.9627     
     24800  -72702.336      403.42268     -72298.913      194.95291      195.35564      880.35431    
     24900  -72690.547      407.21377     -72283.333      194.94         195.33956      880.74593    
     25000  -72663.66       398.99033     -72264.669      194.92761      195.32443      881.13755    
     25100  -72637.5        395.28157     -72242.218      194.91514      195.30991      881.52916    
     25200  -72616.989      401.91179     -72215.077      194.90037      195.29385      881.92078    
     25300  -72589.946      405.43739     -72184.509      194.8874       195.28054      882.3124     
     25400  -72564.821      403.23899     -72161.582      194.87084      195.26496      882.70401    
     25500  -72544.505      402.90735     -72141.598      194.85577      195.25171      883.09563    
     25600  -72520.402      398.53026     -72121.871      194.83917      195.23742      883.48725    
     25700  -72502.452      402.0208      -72100.431      194.82248      195.22354      883.87886    
     25800  -72480.176      401.33772     -72078.839      194.80602      195.21024      884.27048    
     25900  -72458.373      397.57639     -72060.797      194.78864      195.1955       884.6621     
     26000  -72438.605      400.11918     -72038.486      194.77348      195.18183      885.05371    
     26100  -72411.438      404.02046     -72007.417      194.75698      195.16619      885.44533    
     26200  -72381.934      402.34629     -71979.587      194.74229      195.15139      885.83695    
     26300  -72352.557      397.78807     -71954.769      194.72775      195.13531      886.22856    
     26400  -72334.924      403.08284     -71931.841      194.71339      195.11888      886.62018    
     26500  -72311.799      398.31977     -71913.48       194.69979      195.10263      887.0118     
     26600  -72293.199      399.5877      -71893.611      194.6858       195.0857       887.40341    
     26700  -72260.937      397.15144     -71863.785      194.67242      195.06919      887.79503    
     26800  -72232.688      398.77455     -71833.914      194.65822      195.05215      888.18665    
     26900  -72207.755      399.06905     -71808.686      194.64423      195.03632      888.57826    
     27000  -72186.465      400.67162     -71785.794      194.62894      195.02017      888.96988    
     27100  -72164.166      398.1976      -71765.968      194.61352      195.00506      889.3615     
     27200  -72145.282      399.07807     -71746.204      194.59733      194.99049      889.75311    
     27300  -72115.987      397.73509     -71718.252      194.58047      194.97604      890.14473    
     27400  -72086.07       400.10517     -71685.965      194.5637       194.96248      890.53635    
     27500  -72061.701      401.67152     -71660.029      194.54602      194.94871      890.92796    
     27600  -72035.84       400.4942      -71635.346      194.52838      194.93517      891.31958    
     27700  -72017.123      403.9236      -71613.199      194.51059      194.9212       891.7112     
     27800  -71990.68       397.808       -71592.872      194.49286      194.90678      892.10281    
     27900  -71965.688      398.06431     -71567.624      194.47537      194.89176      892.49443    
     28000  -71937.411      402.19684     -71535.214      194.45855      194.87638      892.88605    
     28100  -71911.761      404.24423     -71507.516      194.44121      194.85952      893.27766    
     28200  -71889.416      404.54991     -71484.866      194.42519      194.84306      893.66928    
     28300  -71863.837      398.89531     -71464.941      194.40861      194.82533      894.0609     
     28400  -71841.012      396.92375     -71444.088      194.3923       194.80737      894.45251    
     28500  -71818.853      394.12191     -71424.731      194.37647      194.78969      894.84413    
     28600  -71794.355      395.75699     -71398.598      194.3596       194.77107      895.23575    
     28700  -71763.746      398.63203     -71365.114      194.34375      194.75421      895.62736    
     28800  -71738.592      402.99391     -71335.598      194.32569      194.73597      896.01898    
     28900  -71709.854      401.15939     -71308.695      194.30899      194.72018      896.4106     
     29000  -71687.928      403.69374     -71284.234      194.28971      194.70305      896.80221    
     29100  -71660.224      398.90985     -71261.314      194.27112      194.68735      897.19383    
     29200  -71636.554      397.62054     -71238.934      194.25221      194.67177      897.58545    
     29300  -71609.843      399.17913     -71210.664      194.23169      194.655        897.97706    
     29400  -71580.148      401.99447     -71178.153      194.21293      194.63995      898.36868    
     29500  -71547.79       396.83631     -71150.953      194.19209      194.62204      898.7603     
     29600  -71530.291      403.56771     -71126.724      194.17328      194.60568      899.15191    
     29700  -71507.559      399.98798     -71107.571      194.15288      194.5867       899.54353    
     29800  -71484.509      397.09487     -71087.414      194.13407      194.56812      899.93515    
     29900  -71452.782      394.24161     -71058.54       194.11535      194.54856      900.32676    
     30000  -71426.105      397.01487     -71029.09       194.09614      194.52757      900.71838    
     30100  -71400.143      398.70332     -71001.44       194.07881      194.50785      901.11       
     30200  -71376.122      403.4985      -70972.623      194.05926      194.48547      901.50161    
     30300  -71350.288      406.2223      -70944.065      194.04207      194.46546      901.89323    
     30400  -71324.471      405.0418      -70919.429      194.02267      194.44364      902.28485    
     30500  -71301.654      401.01351     -70900.64       194.00368      194.42314      902.67646    
     30600  -71273.634      395.78272     -70877.851      193.9847       194.40348      903.06808    
     30700  -71249.611      402.04922     -70847.562      193.96337      194.38258      903.4597     
     30800  -71216.459      400.78138     -70815.677      193.94389      194.3647       903.85131    
     30900  -71192.686      403.02039     -70789.665      193.92126      194.34498      904.24293    
     31000  -71165.246      400.21979     -70765.027      193.8999       194.32705      904.63455    
     31100  -71138.679      397.79359     -70740.885      193.87807      194.30847      905.02617    
     31200  -71109.647      393.405       -70716.242      193.8557       194.28934      905.41778    
     31300  -71085.635      398.25817     -70687.377      193.83448      194.27087      905.8094     
     31400  -71057.442      402.95362     -70654.488      193.81259      194.25085      906.20102    
     31500  -71033.243      407.24898     -70625.994      193.79151      194.23059      906.59263    
     31600  -70999.857      398.78691     -70601.07       193.77099      194.20958      906.98425    
     31700  -70979.284      398.06506     -70581.219      193.74999      194.18719      907.37587    
     31800  -70954.34       395.37135     -70558.968      193.72998      194.16486      907.76748    
     31900  -70926.023      399.18505     -70526.838      193.70946      194.14119      908.1591     
     32000  -70893.074      397.24799     -70495.826      193.68921      194.11737      908.55072    
     32100  -70871.641      403.95299     -70467.688      193.66875      194.09319      908.94233    
     32200  -70842.061      401.89478     -70440.166      193.64752      194.0688       909.33395    
     32300  -70820.536      406.451       -70414.084      193.6264       194.04523      909.72557    
     32400  -70789.151      396.55058     -70392.6        193.60379      194.021        910.11718    
     32500  -70769.534      399.66362     -70369.871      193.58185      193.99863      910.5088     
     32600  -70738.598      398.19889     -70340.399      193.55788      193.97517      910.90042    
     32700  -70711.523      405.79387     -70305.729      193.53504      193.95373      911.29203    
     32800  -70681.336      402.7625      -70278.573      193.51026      193.93123      911.68365    
     32900  -70653.527      399.8778      -70253.649      193.48634      193.91019      912.07527    
     33000  -70628.406      398.24845     -70230.158      193.46206      193.88856      912.46688    
     33100  -70604.18       394.36192     -70209.818      193.4375       193.86674      912.8585     
     33200  -70579.524      397.42731     -70182.097      193.41413      193.84568      913.25012    
     33300  -70546.855      400.65131     -70146.203      193.38955      193.8225       913.64173    
     33400  -70518.442      402.25655     -70116.185      193.36743      193.80089      914.03335    
     33500  -70492.268      404.171       -70088.097      193.3437       193.77672      914.42497    
     33600  -70462.119      399.43978     -70062.679      193.32201      193.75413      914.81658    
     33700  -70439.512      399.76499     -70039.747      193.29995      193.7302       915.2082     
     33800  -70409.191      393.77248     -70015.418      193.2781       193.70572      915.59982    
     33900  -70380.068      398.34748     -69981.721      193.25733      193.68256      915.99143    
     34000  -70350.824      401.89943     -69948.924      193.23477      193.65777      916.38305    
     34100  -70319.773      399.02948     -69920.744      193.21352      193.63486      916.77467    
     34200  -70297.171      403.0861      -69894.085      193.1904       193.61092      917.16628    
     34300  -70269.792      399.95798     -69869.834      193.16766      193.58828      917.5579     
     34400  -70241.575      395.40336     -69846.172      193.14376      193.56575      917.94952    
     34500  -70215.512      400.07064     -69815.441      193.11882      193.54336      918.34113    
     34600  -70182.134      401.4114      -69780.722      193.09447      193.52213      918.73275    
     34700  -70156.238      404.58162     -69751.657      193.06841      193.49945      919.12437    
     34800  -70123.457      397.63438     -69725.823      193.04335      193.47853      919.51598    
     34900  -70105.022      400.67222     -69704.35       193.0172       193.45657      919.9076     
     35000  -70080.479      398.12249     -69682.356      192.99152      193.43468      920.29922    
     35100  -70048.823      396.96241     -69651.861      192.96681      193.41282      920.69083    
     35200  -70016.973      396.97753     -69619.996      192.94158      193.38948      921.08245    
     35300  -69991.186      402.78171     -69588.404      192.91819      193.36727      921.47407    
     35400  -69958.873      400.68167     -69558.191      192.89396      193.34325      921.86568    
     35500  -69933.797      404.21845     -69529.579      192.87141      193.31962      922.2573     
     35600  -69901.882      401.45786     -69500.424      192.8488       193.29534      922.64892    
     35700  -69872.56       401.18715     -69471.373      192.82594      193.27023      923.04053    
     35800  -69844.742      401.37497     -69443.368      192.80403      193.24589      923.43215    
     35900  -69818.497      402.26519     -69416.232      192.78046      193.22024      923.82377    
     36000  -69788.457      399.76129     -69388.695      192.7584       193.19638      924.21538    
     36100  -69757.757      398.97475     -69358.783      192.73388      193.17091      924.607      
     36200  -69731.424      405.03629     -69326.387      192.71033      193.1472       924.99862    
     36300  -69704.575      408.39685     -69296.178      192.68536      193.12307      925.39023    
     36400  -69676.735      402.7869      -69273.948      192.65938      193.099        925.78185    
     36500  -69653.705      401.4015      -69252.304      192.63448      193.07668      926.17347    
     36600  -69622.929      400.49683     -69222.432      192.60721      193.05252      926.56508    
     36700  -69590.38       400.14025     -69190.24       192.58238      193.03095      926.9567     
     36800  -69563.473      404.11407     -69159.359      192.55511      193.00702      927.34832    
     36900  -69529.828      398.52239     -69131.305      192.52968      192.9848       927.73993    
     37000  -69503.181      399.45238     -69103.728      192.50412      192.96174      928.13155    
     37100  -69478.759      402.61853     -69076.141      192.4783       192.9379       928.52317    
     37200  -69445.616      397.30568     -69048.31       192.45478      192.91559      928.91478    
     37300  -69420.286      401.1891      -69019.097      192.42909      192.88984      929.3064     
     37400  -69391.952      404.89336     -68987.058      192.40731      192.86736      929.69802    
     37500  -69359.34       403.64318     -68955.697      192.38255      192.84114      930.08963    
     37600  -69332.294      403.90577     -68928.388      192.36119      192.81744      930.48125    
     37700  -69303.015      396.31616     -68906.698      192.33867      192.79179      930.87287    
     37800  -69277.856      397.18711     -68880.669      192.31642      192.76638      931.26448    
     37900  -69237.782      390.81656     -68846.965      192.29487      192.74209      931.6561     
     38000  -69216.506      402.11399     -68814.392      192.27148      192.71615      932.04772    
     38100  -69184.17       399.96842     -68784.202      192.2498       192.69246      932.43933    
     38200  -69151.148      397.81337     -68753.335      192.22556      192.667        932.83095    
     38300  -69125.458      403.54151     -68721.917      192.20202      192.64361      933.22257    
     38400  -69087.664      397.87909     -68689.785      192.17699      192.62001      933.61418    
     38500  -69067.81       406.6658      -68661.144      192.15155      192.59636      934.0058     
     38600  -69039.302      399.15038     -68640.152      192.12641      192.57349      934.39742    
     38700  -69013.385      398.82037     -68614.565      192.10029      192.55025      934.78903    
     38800  -68986.255      400.99965     -68585.256      192.07485      192.5277       935.18065    
     38900  -68957.094      405.27952     -68551.814      192.04911      192.50445      935.57227    
     39000  -68920.288      404.72821     -68515.56       192.02447      192.48133      935.96388    
     39100  -68893.117      404.47337     -68488.644      192.00029      192.45781      936.3555     
     39200  -68869.008      404.35008     -68464.658      191.97652      192.43383      936.74712    
     39300  -68835.907      397.89571     -68438.012      191.95363      192.40997      937.13873    
     39400  -68806.9        397.34401     -68409.556      191.93106      192.3854       937.53035    
     39500  -68781.595      402.76722     -68378.828      191.9097       192.36107      937.92197    
     39600  -68746.947      403.4795      -68343.468      191.88795      192.33573      938.31358    
     39700  -68717.877      405.23873     -68312.638      191.86744      192.31158      938.7052     
     39800  -68694.47       403.73264     -68290.737      191.84594      192.28698      939.09682    
     39900  -68668.62       402.43474     -68266.185      191.82485      192.26344      939.48843    
     40000  -68629.998      394.75249     -68235.246      191.80357      192.24038      939.88005    
     40100  -68602.056      400.50687     -68201.55       191.78196      192.21768      940.27167    
     40200  -68569.747      400.67374     -68169.073      191.76024      192.19639      940.66328    
     40300  -68543.161      407.13786     -68136.023      191.73717      192.1751       941.0549     
     40400  -68508.533      406.96091     -68101.573      191.71516      192.15599      941.44652    
     40500  -68478.749      400.70234     -68078.047      191.69117      192.13553      941.83813    
     40600  -68452.727      398.38807     -68054.339      191.66841      192.11677      942.22975    
     40700  -68423.662      397.94296     -68025.719      191.64466      192.09746      942.62137    
     40800  -68394.504      402.34354     -67992.16       191.62149      192.0787       943.01298    
     40900  -68359.426      402.66475     -67956.761      191.59803      192.05926      943.4046     
     41000  -68335.279      409.04803     -67926.231      191.57573      192.03961      943.79622    
     41100  -68307.197      399.19703     -67908          191.55347      192.01891      944.18783    
     41200  -68277.467      397.74795     -67879.719      191.53238      191.99856      944.57945    
     41300  -68246.144      399.34066     -67846.804      191.51107      191.9769       944.97107    
     41400  -68211.966      398.96989     -67812.996      191.49115      191.95555      945.36268    
     41500  -68189.805      407.83206     -67781.972      191.47163      191.93362      945.7543     
     41600  -68158.592      399.82965     -67758.762      191.45235      191.91163      946.14592    
     41700  -68129.525      395.34202     -67734.182      191.43352      191.89057      946.53753    
     41800  -68100.417      398.54101     -67701.876      191.41402      191.86915      946.92915    
     41900  -68067.461      400.11074     -67667.351      191.39521      191.84915      947.32077    
     42000  -68037.384      402.40946     -67634.974      191.37493      191.82844      947.71238    
     42100  -68006.564      401.77053     -67604.793      191.35571      191.80959      948.104      
     42200  -67974.284      398.68539     -67575.599      191.33433      191.78983      948.49562    
     42300  -67944.757      399.014       -67545.743      191.31392      191.77222      948.88723    
     42400  -67916.157      402.9738      -67513.184      191.29163      191.75316      949.27885    
     42500  -67878.249      398.92333     -67479.325      191.27054      191.73572      949.67047    
     42600  -67854.382      404.71344     -67449.669      191.24843      191.71702      950.06208    
     42700  -67826.08       399.07218     -67427.007      191.2271       191.6987       950.4537     
     42800  -67796.634      396.16634     -67400.468      191.20575      191.68008      950.84532    
     42900  -67772.889      403.95153     -67368.938      191.18501      191.66121      951.23693    
     43000  -67735.485      399.56951     -67335.915      191.16482      191.64149      951.62855    
     43100  -67705.887      405.77228     -67300.115      191.14554      191.62187      952.02017    
     43200  -67674.492      410.03685     -67264.455      191.12633      191.60165      952.41178    
     43300  -67644.072      402.99956     -67241.073      191.10788      191.58162      952.8034     
     43400  -67614.274      397.99222     -67216.282      191.08964      191.5611       953.19502    
     43500  -67590.614      401.43581     -67189.178      191.07206      191.54089      953.58663    
     43600  -67558.47       396.97897     -67161.491      191.05416      191.52057      953.97825    
     43700  -67533.606      402.69561     -67130.911      191.0366       191.50093      954.36987    
     43800  -67495.295      402.06423     -67093.23       191.01891      191.48156      954.76148    
     43900  -67463.747      403.69197     -67060.055      191.00125      191.46253      955.1531     
     44000  -67433.238      399.55601     -67033.682      190.9835       191.44403      955.54472    
     44100  -67406.132      398.23382     -67007.899      190.96514      191.42592      955.93633    
     44200  -67375.777      398.01222     -66977.765      190.94677      191.40841      956.32795    
     44300  -67345.064      400.24714     -66944.817      190.92786      191.39072      956.71957    
     44400  -67314.949      403.91954     -66911.029      190.90905      191.37375      957.11118    
     44500  -67283.98       405.53041     -66878.449      190.88981      191.35667      957.5028     
     44600  -67245.162      397.50555     -66847.657      190.87022      191.33928      957.89442    
     44700  -67218.106      397.39785     -66820.708      190.85122      191.32239      958.28603    
     44800  -67196.59       400.80637     -66795.783      190.83134      191.3039       958.67765    
     44900  -67159.663      393.27526     -66766.388      190.81311      191.2865       959.06927    
     45000  -67131.337      399.69174     -66731.645      190.79376      191.26738      959.46088    
     45100  -67097.113      401.44372     -66695.67       190.77615      191.24905      959.8525     
     45200  -67066.707      398.58182     -66668.126      190.75811      191.22933      960.24412    
     45300  -67043.928      400.88321     -66643.044      190.74147      191.21004      960.63573    
     45400  -67015.887      402.88236     -66613.004      190.7249       191.18999      961.02735    
     45500  -66981.38       400.45007     -66580.93       190.70892      191.17026      961.41897    
     45600  -66953.431      404.12019     -66549.31       190.69312      191.15078      961.81058    
     45700  -66923.491      404.08208     -66519.409      190.67689      191.13107      962.2022     
     45800  -66891.048      397.72917     -66493.319      190.66095      191.11246      962.59382    
     45900  -66862.709      396.60277     -66466.106      190.64453      191.09392      962.98543    
     46000  -66831.62       399.33432     -66432.286      190.62802      191.07623      963.37705    
     46100  -66797.464      404.05076     -66393.413      190.61089      191.05917      963.76867    
     46200  -66765.517      402.05337     -66363.464      190.59347      191.043        964.16028    
     46300  -66741.028      403.73011     -66337.298      190.57588      191.02762      964.5519     
     46400  -66705.981      396.73981     -66309.241      190.55776      191.01242      964.94352    
     46500  -66680.491      402.72286     -66277.769      190.54017      190.99817      965.33513    
     46600  -66647.336      401.32346     -66246.012      190.52223      190.98353      965.72675    
     46700  -66613.102      398.80324     -66214.299      190.50482      190.96935      966.11837    
     46800  -66582.575      400.85254     -66181.722      190.48737      190.95479      966.50998    
     46900  -66554.702      404.82625     -66149.875      190.47054      190.9403       966.9016     
     47000  -66521.317      401.57334     -66119.743      190.45377      190.92502      967.29322    
     47100  -66489.139      398.2131      -66090.926      190.4378       190.90947      967.68484    
     47200  -66462.935      401.90637     -66061.028      190.42206      190.89355      968.07645    
     47300  -66430.077      400.3712      -66029.706      190.40658      190.87702      968.46807    
     47400  -66394.445      398.75149     -65995.694      190.39128      190.86023      968.85969    
     47500  -66368.416      407.94723     -65960.469      190.37639      190.84332      969.2513     
     47600  -66332.96       402.05463     -65930.906      190.36171      190.82609      969.64292    
     47700  -66307.254      399.21337     -65908.041      190.34712      190.80934      970.03454    
     47800  -66271.853      393.12599     -65878.727      190.33185      190.79264      970.42615    
     47900  -66247.577      401.92501     -65845.652      190.31721      190.77727      970.81777    
     48000  -66214.502      404.03044     -65810.471      190.30128      190.7612       971.20939    
     48100  -66180.591      406.84526     -65773.746      190.28641      190.74676      971.601      
     48200  -66143.986      401.40144     -65742.585      190.26981      190.73161      971.99262    
     48300  -66122.88       402.22408     -65720.656      190.25427      190.71855      972.38424    
     48400  -66092.472      400.92476     -65691.548      190.23658      190.70411      972.77585    
     48500  -66060.099      401.18084     -65658.918      190.22024      190.6913       973.16747    
     48600  -66025.608      402.01618     -65623.592      190.20287      190.67718      973.55909    
     48700  -65995.547      407.68005     -65587.867      190.18604      190.66349      973.9507     
     48800  -65960.79       401.82941     -65558.961      190.16908      190.64937      974.34232    
     48900  -65934.37       398.63082     -65535.739      190.15199      190.63435      974.73394    
     49000  -65904.838      399.26525     -65505.573      190.13635      190.61994      975.12555    
     49100  -65875.095      401.55007     -65473.545      190.11989      190.60337      975.51717    
     49200  -65843.556      402.27896     -65441.277      190.10537      190.58776      975.90879    
     49300  -65810.054      399.81296     -65410.241      190.08955      190.57015      976.3004     
     49400  -65779.67       397.61039     -65382.059      190.07586      190.55431      976.69202    
     49500  -65756.029      402.13565     -65353.894      190.06073      190.5364       977.08364    
     49600  -65718.932      398.21104     -65320.721      190.04712      190.52001      977.47525    
     49700  -65681.551      400.41916     -65281.132      190.03256      190.50261      977.86687    
     49800  -65654.393      405.02293     -65249.37       190.01864      190.48659      978.25849    
     49900  -65626.27       403.60344     -65222.666      190.00375      190.47016      978.6501     
     50000  -65597.783      404.58494     -65193.198      189.98875      190.45453      979.04172    
     50100  -65560.496      397.60412     -65162.892      189.97417      190.43989      979.43334    
     50200  -65533.439      400.42555     -65133.013      189.95813      190.42436      979.82495    
     50300  -65498.027      394.13135     -65103.896      189.94357      190.41067      980.21657    
     50400  -65473.095      397.05081     -65076.045      189.92677      190.39564      980.60819    
     50500  -65440.228      398.25912     -65041.969      189.91172      190.38268      980.9998     
     50600  -65404.067      402.35764     -65001.709      189.89469      190.36778      981.39142    
     50700  -65367.604      399.03752     -64968.567      189.87889      190.35392      981.78304    
     50800  -65344.078      404.61192     -64939.466      189.86281      190.33933      982.17465    
     50900  -65314.384      401.30649     -64913.078      189.84621      190.32419      982.56627    
     51000  -65281.183      396.73455     -64884.449      189.83054      190.30945      982.95789    
     51100  -65249.071      398.62675     -64850.444      189.81356      190.29266      983.3495     
     51200  -65219.326      402.52079     -64816.805      189.79923      190.27781      983.74112    
     51300  -65184.789      400.09237     -64784.697      189.78213      190.25911      984.13274    
     51400  -65153.618      398.48706     -64755.131      189.76902      190.24397      984.52435    
     51500  -65128.227      398.92297     -64729.304      189.75238      190.22465      984.91597    
     51600  -65099.277      400.65928     -64698.617      189.73967      190.20896      985.30759    
     51700  -65067.547      405.1417      -64662.406      189.72382      190.18963      985.6992     
     51800  -65024.674      403.65349     -64621.02       189.71097      190.17324      986.09082    
     51900  -64992.867      403.78438     -64589.083      189.69605      190.15478      986.48244    
     52000  -64967.468      404.81157     -64562.656      189.68221      190.13789      986.87405    
     52100  -64939.24       402.57678     -64536.664      189.66786      190.12119      987.26567    
     52200  -64906.949      399.2133      -64507.735      189.65217      190.10396      987.65729    
     52300  -64875.816      399.74509     -64476.071      189.63868      190.08958      988.0489     
     52400  -64843.384      400.51977     -64442.864      189.62104      190.07222      988.44052    
     52500  -64812.869      403.76137     -64409.108      189.60738      190.05956      988.83214    
     52600  -64779.822      402.40513     -64377.417      189.58911      190.04341      989.22375    
     52700  -64747.884      397.82805     -64350.056      189.57449      190.03144      989.61537    
     52800  -64715.396      394.7405      -64320.655      189.55683      190.01699      990.00699    
     52900  -64685.674      400.92522     -64284.748      189.54078      190.00425      990.3986     
     53000  -64647.798      404.61317     -64243.185      189.52429      189.99095      990.79022    
     53100  -64613.855      404.9396      -64208.915      189.50715      189.97673      991.18184    
     53200  -64586.215      406.11781     -64180.097      189.49247      189.96427      991.57345    
     53300  -64556.592      404.18093     -64152.411      189.47504      189.94838      991.96507    
     53400  -64525.888      401.69009     -64124.198      189.46102      189.9351       992.35669    
     53500  -64495.611      401.64248     -64093.968      189.44464      189.91828      992.7483     
     53600  -64460.633      397.42224     -64063.211      189.43101      189.90339      993.13992    
     53700  -64428.82       392.98685     -64035.833      189.4157       189.88627      993.53154    
     53800  -64402.505      395.34093     -64007.164      189.40156      189.86999      993.92315    
     53900  -64372.773      401.33828     -63971.434      189.38768      189.85352      994.31477    
     54000  -64338.477      409.03547     -63929.442      189.37287      189.83597      994.70639    
     54100  -64299.072      401.27147     -63897.801      189.35994      189.82087      995.098      
     54200  -64268.264      397.52213     -63870.742      189.34419      189.80348      995.48962    
     54300  -64241.422      400.87151     -63840.551      189.33102      189.78977      995.88124    
     54400  -64209.89       401.58058     -63808.31       189.31391      189.77321      996.27285    
     54500  -64174.096      398.52655     -63775.57       189.29973      189.76007      996.66447    
     54600  -64143.92       396.47464     -63747.445      189.28249      189.74437      997.05609    
     54700  -64118.066      400.53413     -63717.532      189.26677      189.7311       997.4477     
     54800  -64079.227      398.48761     -63680.739      189.24947      189.71702      997.83932    
     54900  -64044.958      404.99453     -63639.963      189.23169      189.70289      998.23094    
     55000  -64010.292      403.28445     -63607.008      189.21456      189.6893       998.62255    
     55100  -63982.844      404.504       -63578.34       189.1965       189.67416      999.01417    
     55200  -63953.088      404.09651     -63548.992      189.18027      189.66028      999.40579    
     55300  -63922.24       402.98536     -63519.255      189.16225      189.64397      999.7974     
     55400  -63891.241      402.54231     -63488.699      189.14654      189.62944      1000.189     
     55500  -63852.543      395.6559      -63456.887      189.12934      189.61267      1000.5806    
     55600  -63826.549      400.9953      -63425.554      189.11376      189.5965       1000.9723    
     55700  -63795.725      394.25776     -63401.468      189.09828      189.57945      1001.3639    
     55800  -63761.575      395.24737     -63366.327      189.08262      189.56192      1001.7555    
     55900  -63729.533      402.60021     -63326.933      189.06809      189.54516      1002.1471    
     56000  -63697.792      406.36122     -63291.431      189.05261      189.52683      1002.5387    
     56100  -63666.015      404.29576     -63261.719      189.03849      189.50975      1002.9303    
     56200  -63629.807      396.97095     -63232.836      189.02374      189.49211      1003.322     
     56300  -63599.668      400.66188     -63199.006      189.00879      189.47462      1003.7136    
     56400  -63562.624      396.3749      -63166.25       188.99436      189.45799      1004.1052    
     56500  -63535.417      400.09003     -63135.327      188.9787       189.44061      1004.4968    
     56600  -63502.928      397.27934     -63105.648      188.96393      189.42472      1004.8884    
     56700  -63470.063      396.01702     -63074.046      188.947        189.40791      1005.28      
     56800  -63438.434      400.59095     -63037.843      188.93092      189.39276      1005.6717    
     56900  -63400.118      403.4132      -62996.704      188.9131       189.37638      1006.0633    
     57000  -63363.888      402.65045     -62961.238      188.89598      189.36099      1006.4549    
     57100  -63339.325      405.4402      -62933.885      188.87771      189.34509      1006.8465    
     57200  -63310.137      406.76081     -62903.377      188.8592       189.32956      1007.2381    
     57300  -63275.042      403.15731     -62871.885      188.84082      189.31396      1007.6297    
     57400  -63239.095      397.6463      -62841.449      188.82166      189.29713      1008.0214    
     57500  -63208.134      398.48588     -62809.648      188.80437      189.28132      1008.413     
     57600  -63174.668      398.1064      -62776.561      188.78586      189.26332      1008.8046    
     57700  -63142.428      399.85452     -62742.573      188.76967      189.24691      1009.1962    
     57800  -63110.649      401.69857     -62708.95       188.75166      189.22785      1009.5878    
     57900  -63084.14       406.451       -62677.689      188.73588      189.21018      1009.9794    
     58000  -63048.824      402.9083      -62645.916      188.71989      189.19138      1010.3711    
     58100  -63012.15       399.88066     -62612.269      188.70388      189.17208      1010.7627    
     58200  -62982.321      403.53121     -62578.79       188.68873      189.15328      1011.1543    
     58300  -62952.683      407.28752     -62545.396      188.67266      189.13348      1011.5459    
     58400  -62913.947      401.56096     -62512.386      188.65799      189.11533      1011.9375    
     58500  -62884.744      404.64117     -62480.103      188.64153      189.09616      1012.3291    
     58600  -62848.247      400.87299     -62447.374      188.62569      189.0782       1012.7208    
     58700  -62818.38       402.39551     -62415.984      188.60941      189.06053      1013.1124    
     58800  -62785.159      402.3443      -62382.814      188.59264      189.04361      1013.504     
     58900  -62747.743      398.57373     -62349.169      188.57509      189.02692      1013.8956    
     59000  -62718.524      403.41948     -62315.105      188.55763      189.01076      1014.2872    
     59100  -62684.56       401.46671     -62283.093      188.54014      188.99517      1014.6788    
     59200  -62652.896      403.56481     -62249.331      188.52163      188.97915      1015.0705    
     59300  -62618.321      404.92528     -62213.396      188.50349      188.96364      1015.4621    
     59400  -62583.011      403.21673     -62179.794      188.48469      188.9481       1015.8537    
     59500  -62548.665      399.74587     -62148.919      188.46616      188.93243      1016.2453    
     59600  -62517.358      401.51828     -62115.839      188.44755      188.91638      1016.6369    
     59700  -62485.705      404.92533     -62080.78       188.4293       188.90014      1017.0285    
     59800  -62447.567      400.64663     -62046.92       188.41079      188.88331      1017.4202    
     59900  -62415.064      401.42368     -62013.64       188.39296      188.86644      1017.8118    
     60000  -62384.01       403.75284     -61980.257      188.37551      188.84912      1018.2034    
     60100  -62352.098      405.52559     -61946.572      188.35842      188.83139      1018.595     
     60200  -62317.362      403.48805     -61913.874      188.34163      188.81345      1018.9866    
     60300  -62285.821      404.4247      -61881.396      188.32549      188.79565      1019.3782    
     60400  -62246.575      400.18958     -61846.386      188.30902      188.77702      1019.7699    
     60500  -62213.302      402.27648     -61811.025      188.29313      188.75875      1020.1615    
     60600  -62181.103      405.13574     -61775.967      188.27691      188.74047      1020.5531    
     60700  -62142.623      400.70702     -61741.916      188.26009      188.72166      1020.9447    
     60800  -62111.164      404.60328     -61706.561      188.244        188.70383      1021.3363    
     60900  -62074.774      402.97893     -61671.795      188.22607      188.68509      1021.7279    
     61000  -62041.962      402.86714     -61639.095      188.20893      188.66771      1022.1196    
     61100  -62014.787      409.92569     -61604.861      188.19042      188.64962      1022.5112    
     61200  -61968.173      397.98226     -61570.191      188.17232      188.63236      1022.9028    
     61300  -61940.275      404.14354     -61536.132      188.15349      188.61482      1023.2944    
     61400  -61901.809      399.76005     -61502.049      188.13431      188.59748      1023.686     
     61500  -61871.413      404.46217     -61466.951      188.11551      188.58073      1024.0776    
     61600  -61835.404      402.43705     -61432.967      188.09511      188.56292      1024.4693    
     61700  -61800.799      402.67296     -61398.126      188.07649      188.54733      1024.8609    
     61800  -61761.265      397.36574     -61363.899      188.05633      188.52974      1025.2525    
     61900  -61731.002      402.26537     -61328.737      188.03727      188.51272      1025.6441    
     62000  -61696.157      401.99111     -61294.166      188.01826      188.49583      1026.0357    
     62100  -61660.833      401.23143     -61259.601      187.99893      188.47782      1026.4273    
     62200  -61625.85       401.76783     -61224.082      187.9815       188.46089      1026.819     
     62300  -61588.536      399.32543     -61189.21       187.96299      188.44202      1027.2106    
     62400  -61554.297      400.68011     -61153.617      187.94604      188.42444      1027.6022    
     62500  -61520.524      403.52526     -61116.999      187.92837      188.40536      1027.9938    
     62600  -61481.559      402.03344     -61079.525      187.91177      188.38647      1028.3854    
     62700  -61441.799      399.32246     -61042.476      187.89526      188.36725      1028.777     
     62800  -61410.193      404.71317     -61005.48       187.8778       188.34683      1029.1687    
     62900  -61374.908      405.1784      -60969.729      187.86236      188.32803      1029.5603    
     63000  -61335.669      400.87384     -60934.795      187.84431      188.307        1029.9519    
     63100  -61299.578      400.46609     -60899.112      187.82775      188.28806      1030.3435    
     63200  -61269.241      406.03653     -60863.205      187.8099       188.268        1030.7351    
     63300  -61229.038      401.59807     -60827.44       187.79181      188.24836      1031.1267    
     63400  -61193.453      402.23998     -60791.213      187.77404      188.2298       1031.5184    
     63500  -61158.125      403.29882     -60754.826      187.75485      188.21065      1031.91      
     63600  -61122.46       403.17133     -60719.289      187.73636      188.19247      1032.3016    
     63700  -61078.498      396.60227     -60681.896      187.717        188.17432      1032.6932    
     63800  -61049.622      404.24889     -60645.373      187.69742      188.15655      1033.0848    
     63900  -61011.607      404.00337     -60607.604      187.67804      188.13895      1033.4764    
     64000  -60975.407      405.16892     -60570.238      187.65837      188.12115      1033.8681    
     64100  -60938.092      405.48599     -60532.606      187.63918      188.1042       1034.2597    
     64200  -60897.476      401.64668     -60495.829      187.61961      188.08653      1034.6513    
     64300  -60863.967      405.61941     -60458.348      187.60051      188.06869      1035.0429    
     64400  -60824.722      403.45859     -60421.264      187.58215      188.05166      1035.4345    
     64500  -60782.617      398.52771     -60384.089      187.56335      188.03353      1035.8261    
     64600  -60749.049      403.60501     -60345.444      187.54595      188.01588      1036.2178    
     64700  -60713.951      406.87677     -60307.074      187.5284       187.99748      1036.6094    
     64800  -60672.397      403.84376     -60268.553      187.51133      187.97915      1037.001     
     64900  -60631.471      402.69414     -60228.777      187.49473      187.96071      1037.3926    
     65000  -60596.561      407.32506     -60189.236      187.47832      187.94227      1037.7842    
     65100  -60553.329      402.3449      -60150.984      187.46174      187.92359      1038.1758    
     65200  -60513.482      401.99737     -60111.485      187.44499      187.90489      1038.5675    
     65300  -60476.302      403.62855     -60072.674      187.42888      187.88675      1038.9591    
     65400  -60433.319      401.01855     -60032.3        187.41158      187.86772      1039.3507    
     65500  -60401.629      408.66045     -59992.969      187.39508      187.84995      1039.7423    
     65600  -60359.213      405.01902     -59954.194      187.37783      187.83192      1040.1339    
     65700  -60315.649      399.28729     -59916.361      187.36037      187.81438      1040.5255    
     65800  -60281.071      405.37493     -59875.696      187.34337      187.79762      1040.9172    
     65900  -60242.632      405.63156     -59837          187.32538      187.78052      1041.3088    
     66000  -60198.355      401.44696     -59796.908      187.308        187.76485      1041.7004    
     66100  -60165.279      408.21901     -59757.06       187.28981      187.74868      1042.092     
     66200  -60114.002      398.69255     -59715.309      187.27177      187.7331       1042.4836    
     66300  -60078.308      403.90936     -59674.398      187.25395      187.718        1042.8752    
     66400  -60037.933      404.59116     -59633.342      187.23536      187.70212      1043.2669    
     66500  -59998.777      407.15563     -59591.621      187.21815      187.68736      1043.6585    
     66600  -59955.2        405.49711     -59549.703      187.19979      187.6713       1044.0501    
     66700  -59917.457      409.88001     -59507.577      187.18249      187.65567      1044.4417    
     66800  -59866.58       400.79184     -59465.788      187.16579      187.6398       1044.8333    
     66900  -59827.079      402.67087     -59424.408      187.14838      187.62299      1045.2249    
     67000  -59789.515      405.96386     -59383.551      187.13221      187.60696      1045.6166    
     67100  -59746.899      405.87137     -59341.028      187.11602      187.59013      1046.0082    
     67200  -59705.214      405.33065     -59299.883      187.09962      187.57305      1046.3998    
     67300  -59663.507      405.48884     -59258.018      187.08469      187.55697      1046.7914    
     67400  -59617.798      402.63285     -59215.165      187.06825      187.539        1047.183     
     67500  -59582.703      409.87618     -59172.827      187.0536       187.5227       1047.5746    
     67600  -59531.51       400.85708     -59130.653      187.03869      187.50591      1047.9663    
     67700  -59487.268      398.29876     -59088.969      187.02389      187.48908      1048.3579    
     67800  -59449.992      404.29908     -59045.693      187.00954      187.47272      1048.7495    
     67900  -59408.1        407.25682     -59000.843      186.9952       187.45639      1049.1411    
     68000  -59359.507      402.52258     -58956.984      186.98081      187.44033      1049.5327    
     68100  -59314.939      402.25707     -58912.682      186.96662      187.42465      1049.9243    
     68200  -59272.449      403.83823     -58868.611      186.95175      187.40884      1050.316     
     68300  -59228.16       405.22975     -58822.93       186.93772      187.39414      1050.7076    
     68400  -59180.372      402.88547     -58777.487      186.92215      187.37857      1051.0992    
     68500  -59136.744      403.68461     -58733.059      186.90769      187.3646       1051.4908    
     68600  -59092.265      404.94365     -58687.322      186.89222      187.34988      1051.8824    
     68700  -59052.744      410.00288     -58642.741      186.87691      187.33571      1052.274     
     68800  -59007.248      409.40748     -58597.84       186.86177      187.32212      1052.6657    
     68900  -58958.005      405.16326     -58552.842      186.84642      187.3081       1053.0573    
     69000  -58918.771      410.54778     -58508.223      186.83138      187.29451      1053.4489    
     69100  -58867.002      406.04476     -58460.957      186.81642      187.28103      1053.8405    
     69200  -58817.008      402.4015      -58414.606      186.80135      187.26715      1054.2321    
     69300  -58776.651      408.92174     -58367.73       186.78698      187.25379      1054.6237    
     69400  -58726.754      404.6618      -58322.092      186.77278      187.24019      1055.0154    
     69500  -58683.956      407.24764     -58276.709      186.75863      187.22633      1055.407     
     69600  -58636.924      408.52763     -58228.396      186.74525      187.21283      1055.7986    
     69700  -58591.716      408.7313      -58182.985      186.73193      187.19902      1056.1902    
     69800  -58540.891      407.47607     -58133.414      186.71915      187.18561      1056.5818    
     69900  -58492.021      403.62584     -58088.395      186.70653      187.17197      1056.9734    
     70000  -58444.534      403.40608     -58041.128      186.69441      187.15856      1057.3651    
     70100  -58399.926      406.14559     -57993.781      186.68249      187.14522      1057.7567    
     70200  -58354.305      408.66957     -57945.635      186.6707       187.13183      1058.1483    
     70300  -58309.913      412.14244     -57897.77       186.6592       187.11888      1058.5399    
     70400  -58267.366      416.93352     -57850.433      186.6475       187.10581      1058.9315    
     70500  -58208.641      409.21181     -57799.429      186.63595      187.0932       1059.3231    
     70600  -58166.113      416.68997     -57749.423      186.62415      187.08065      1059.7148    
     70700  -58113.669      412.54766     -57701.121      186.61239      187.06826      1060.1064    
     70800  -58064.073      411.23637     -57652.837      186.60079      187.05627      1060.498     
     70900  -58015.312      413.15162     -57602.161      186.58876      187.0443       1060.8896    
     71000  -57964.554      411.58947     -57552.965      186.57717      187.03308      1061.2812    
     71100  -57913.47       408.46877     -57505.001      186.56525      187.02175      1061.6728    
     71200  -57866.269      411.76168     -57454.508      186.55342      187.01069      1062.0645    
     71300  -57817.678      414.6115      -57403.067      186.54167      187.00012      1062.4561    
     71400  -57760.753      408.48293     -57352.27       186.5299       186.98954      1062.8477    
     71500  -57713.483      414.15457     -57299.328      186.51813      186.97916      1063.2393    
     71600  -57661.731      413.66621     -57248.065      186.50642      186.96903      1063.6309    
     71700  -57612.437      412.47523     -57199.962      186.4949       186.9589       1064.0225    
     71800  -57558.235      408.28134     -57149.953      186.4835       186.94858      1064.4142    
     71900  -57513.83       416.79114     -57097.039      186.47227      186.93829      1064.8058    
     72000  -57461.626      416.54383     -57045.082      186.46114      186.92802      1065.1974    
     72100  -57410.118      419.43818     -56990.68       186.45027      186.91756      1065.589     
     72200  -57357.389      419.23378     -56938.155      186.43975      186.90702      1065.9806    
     72300  -57300.009      417.30822     -56882.701      186.42913      186.89631      1066.3722    
     72400  -57254.171      424.16289     -56830.008      186.41866      186.88555      1066.7639    
     72500  -57198.217      420.55142     -56777.665      186.40879      186.87489      1067.1555    
     72600  -57146.219      423.50715     -56722.711      186.39852      186.8638       1067.5471    
     72700  -57093.918      424.11322     -56669.805      186.38877      186.85328      1067.9387    
[...]
     81600  -68484.946      502.38277     -67982.563      185.97652      186.4718       1102.7926    
     81700  -68653.586      499.12509     -68154.461      185.98231      186.47861      1103.1842    
     81800  -68819.554      496.03356     -68323.52       185.98808      186.4854       1103.5758    
     81900  -68983.192      493.31018     -68489.882      185.99383      186.49216      1103.9674    
     82000  -69144.642      490.95222     -68653.689      185.99954      186.49887      1104.3591    
     82100  -69303.592      488.51781     -68815.074      186.00525      186.50558      1104.7507    
     82200  -69459.877      485.73695     -68974.14       186.01092      186.51224      1105.1423    
     82300  -69614.113      483.12184     -69130.992      186.01659      186.5189       1105.5339    
     82400  -69767.065      481.32665     -69285.738      186.02223      186.52554      1105.9255    
     82500  -69918.244      479.75382     -69438.49       186.02788      186.53217      1106.3171    
     82600  -70066.782      477.43881     -69589.343      186.03351      186.5388       1106.7088    
     82700  -70213.552      475.16289     -69738.389      186.03911      186.5454       1107.1004    
     82800  -70359.366      473.63757     -69885.729      186.04471      186.552        1107.492     
     82900  -70504.126      472.6524      -70031.473      186.05029      186.55859      1107.8836    
     83000  -70646.884      471.173       -70175.711      186.05585      186.56517      1108.2752    
     83100  -70788.029      469.49025     -70318.539      186.06143      186.57175      1108.6668    
     83200  -70927.924      467.87457     -70460.049      186.06701      186.57834      1109.0585    
     83300  -71066.808      466.47527     -70600.333      186.07261      186.58495      1109.4501    
     83400  -71204.733      465.27328     -70739.46       186.07824      186.59159      1109.8417    
     83500  -71341.651      464.16375     -70877.488      186.08387      186.59823      1110.2333    
     83600  -71477.599      463.14        -71014.459      186.08953      186.60491      1110.6249    
     83700  -71612.614      462.21026     -71150.404      186.09518      186.61159      1111.0165    
     83800  -71746.722      461.38358     -71285.338      186.10085      186.61827      1111.4082    
     83900  -71879.842      460.57106     -71419.271      186.10651      186.62495      1111.7998    
     84000  -72011.911      459.69786     -71552.213      186.11215      186.63162      1112.1914    
     84100  -72142.911      458.72674     -71684.185      186.1178       186.63831      1112.583     
     84200  -72272.892      457.6791      -71815.212      186.12345      186.645        1112.9746    
     84300  -72401.903      456.57584     -71945.328      186.12911      186.6517       1113.3662    
     84400  -72530.071      455.50606     -72074.565      186.13477      186.65841      1113.7579    
     84500  -72657.576      454.61877     -72202.958      186.14044      186.66513      1114.1495    
     84600  -72784.582      454.03564     -72330.547      186.14613      186.67188      1114.5411    
     84700  -72911.028      453.64762     -72457.38       186.15184      186.67865      1114.9327    
     84800  -73036.369      452.89022     -72583.479      186.15755      186.68542      1115.3243    
     84900  -73160.662      451.8134      -72708.848      186.16328      186.69221      1115.7159    
     85000  -73284.578      451.08012     -72833.498      186.16902      186.69903      1116.1076    
     85100  -73408.168      450.71748     -72957.451      186.17478      186.70587      1116.4992    
     85200  -73530.315      449.64136     -73080.674      186.18056      186.71273      1116.8908    
     85300  -73648.693      446.6935      -73202          186.18643      186.7197       1117.2824    
     85400  -73764.794      444.27874     -73320.515      186.19232      186.72669      1117.674     
     85500  -73878.52       442.17306     -73436.347      186.1983       186.73377      1118.0656    
     85600  -73990.012      440.3262      -73549.686      186.20431      186.7409       1118.4573    
     85700  -74098.842      438.25924     -73660.583      186.2104       186.74811      1118.8489    
     85800  -74205.265      436.23923     -73769.026      186.21656      186.75539      1119.2405    
     85900  -74309.151      434.16564     -73874.985      186.22276      186.76274      1119.6321    
     86000  -74410.835      432.39953     -73978.435      186.22906      186.77018      1120.0237    
     86100  -74509.639      430.30351     -74079.335      186.23542      186.77769      1120.4153    
     86200  -74606.034      428.37719     -74177.656      186.24187      186.78531      1120.807     
     86300  -74699.847      426.48588     -74273.361      186.24841      186.79301      1121.1986    
     86400  -74790.994      424.58641     -74366.408      186.25502      186.80081      1121.5902    
     86500  -74879.512      422.76085     -74456.751      186.26174      186.80872      1121.9818    
     86600  -74965.201      420.86249     -74544.339      186.26854      186.81672      1122.3734    
     86700  -75048.199      419.07981     -74629.119      186.27546      186.82485      1122.765     
     86800  -75128.329      417.29524     -74711.034      186.28248      186.83309      1123.1567    
     86900  -75205.589      415.56356     -74790.025      186.28961      186.84145      1123.5483    
     87000  -75279.917      413.88516     -74866.031      186.29687      186.84995      1123.9399    
     87100  -75351.237      412.2472      -74938.99       186.30425      186.85858      1124.3315    
     87200  -75419.477      410.65115     -75008.826      186.31176      186.86736      1124.7231    
     87300  -75484.573      409.1182      -75075.454      186.31941      186.87629      1125.1147    
     87400  -75546.42       407.64559     -75138.774      186.3272       186.88537      1125.5064    
     87500  -75604.917      406.24815     -75198.669      186.33514      186.89462      1125.898     
     87600  -75659.945      404.93045     -75255.015      186.34324      186.90403      1126.2896    
     87700  -75711.384      403.7017      -75307.682      186.3515       186.91361      1126.6812    
     87800  -75759.293      402.74469     -75356.548      186.35989      186.92333      1127.0728    
     87900  -75803.8        402.05717     -75401.743      186.36837      186.93318      1127.4644    
     88000  -75844.816      401.32294     -75443.493      186.37695      186.94315      1127.8561    
     88100  -75882.272      400.55564     -75481.716      186.38565      186.95324      1128.2477    
     88200  -75916.146      399.98444     -75516.162      186.39448      186.96349      1128.6393    
     88300  -75946.386      399.61872     -75546.768      186.40345      186.97388      1129.0309    
     88400  -75972.956      399.32369     -75573.633      186.41254      186.98442      1129.4225    
     88500  -75995.782      398.99978     -75596.782      186.42175      186.9951       1129.8141    
     88600  -76014.841      398.76429     -75616.076      186.43109      187.00594      1130.2058    
     88700  -76030.084      398.67064     -75631.414      186.44056      187.01694      1130.5974    
     88800  -76041.465      398.64328     -75642.822      186.45018      187.02811      1130.989     
     88900  -76048.946      398.59295     -75650.353      186.45994      187.03943      1131.3806    
     89000  -76052.482      398.52217     -75653.96       186.46988      187.05091      1131.7722    
     89100  -76052.049      398.51137     -75653.538      186.47994      187.06254      1132.1638    
     89200  -76047.416      398.37362     -75649.043      186.48998      187.07412      1132.5555    
     89300  -76038.265      398.0254      -75640.24       186.50006      187.08573      1132.9471    
     89400  -76024.344      397.73403     -75626.61       186.51012      187.09734      1133.3387    
     89500  -76005.433      397.59041     -75607.842      186.5202       187.10899      1133.7303    
     89600  -75981.412      397.34001     -75584.072      186.53034      187.12073      1134.1219    
     89700  -75952.153      396.67203     -75555.48       186.54053      187.13252      1134.5135    
     89800  -75917.252      395.45051     -75521.802      186.55074      187.14436      1134.9052    
     89900  -75876.522      394.13785     -75482.385      186.56105      187.15632      1135.2968    
     90000  -75829.778      392.71636     -75437.062      186.57137      187.16835      1135.6884    
     90100  -75776.8        390.65011     -75386.15       186.58175      187.18046      1136.08      
     90200  -75717.443      387.75453     -75329.688      186.59222      187.19271      1136.4716    
     90300  -75651.649      384.18932     -75267.46       186.60278      187.20502      1136.8632    
     90400  -75579.226      379.73615     -75199.49       186.61341      187.21737      1137.2549    
     90500  -75500.016      374.06723     -75125.949      186.62417      187.22983      1137.6465    
     90600  -75414.478      367.47341     -75047.005      186.63504      187.24242      1138.0381    
     90700  -75322.788      359.59024     -74963.197      186.64593      187.25507      1138.4297    
     90800  -75225.561      350.41528     -74875.146      186.65685      187.26787      1138.8213    
     90900  -75123.834      340.28123     -74783.553      186.66782      187.2809       1139.2129    
     91000  -75018.618      329.29668     -74689.321      186.67875      187.29385      1139.6046    
     91100  -74912.307      319.14658     -74593.16       186.68992      187.30696      1139.9962    
     91200  -74801.994      305.49607     -74496.498      186.70135      187.32045      1140.3878    
     91300  -74790.019      395.50931     -74394.51       186.71029      187.33139      1140.7794    
     91400  -74792.77       469.18007     -74323.589      186.71214      187.3356       1141.171     
     91500  -74913.948      510.21386     -74403.734      186.72412      187.34938      1141.5626    
     91600  -74999.97       438.18498     -74561.785      186.73265      187.36205      1141.9543    
     91700  -75123.219      437.84188     -74685.378      186.74624      187.37845      1142.3459    
     91800  -75147.436      367.71513     -74779.721      186.7556       187.39336      1142.7375    
     91900  -75175.643      373.25911     -74802.383      186.76552      187.41055      1143.1291    
     92000  -75173.173      396.47899     -74776.694      186.77358      187.42806      1143.5207    
     92100  -75154.201      411.82398     -74742.377      186.78526      187.44839      1143.9123    
     92200  -75141.591      414.20186     -74727.389      186.80264      187.46355      1144.304     
     92300  -75163.672      422.57555     -74741.096      186.82328      187.48591      1144.6956    
     92400  -75202.171      410.12516     -74792.045      186.84338      187.51074      1145.0872    
     92500  -75236.264      388.6643      -74847.599      186.86292      187.54066      1145.4788    
     92600  -75265.387      387.10913     -74878.278      186.88293      187.57004      1145.8704    
     92700  -75291.179      403.32166     -74887.858      186.90402      187.60521      1146.262     
     92800  -75306.821      402.17677     -74904.644      186.91906      187.638        1146.6537    
     92900  -75319.315      393.93511     -74925.379      186.93181      187.67601      1147.0453    
     93000  -75328.159      393.19688     -74934.962      186.94516      187.71638      1147.4369    
     93100  -75346.032      410.09198     -74935.94       186.96009      187.75608      1147.8285    
     93200  -75355.412      407.28168     -74948.13       186.97873      187.7928       1148.2201    
     93300  -75361.925      395.05416     -74966.871      186.99927      187.82714      1148.6117    
     93400  -75366.012      396.40607     -74969.606      187.02132      187.85913      1149.0034    
     93500  -75369.39       407.56464     -74961.825      187.04508      187.8894       1149.395     
     93600  -75373.427      410.01542     -74963.411      187.06397      187.91556      1149.7866    
     93700  -75381.019      399.29915     -74981.72       187.08411      187.94174      1150.1782    
     93800  -75389.149      390.32597     -74998.823      187.1046       187.96938      1150.5698    
     93900  -75407.288      401.88963     -75005.399      187.12836      187.9956       1150.9614    
     94000  -75397.129      385.39098     -75011.738      187.15115      188.01916      1151.3531    
     94100  -75398.046      398.44559     -74999.601      187.17607      188.04376      1151.7447    
     94200  -75396.582      411.90095     -74984.681      187.19993      188.07036      1152.1363    
     94300  -75400.63       407.89279     -74992.737      187.2204       188.09928      1152.5279    
     94400  -75418.664      404.05531     -75014.609      187.24396      188.13214      1152.9195    
     94500  -75440.742      402.20833     -75038.534      187.26391      188.16605      1153.3111    
     94600  -75453.062      397.30227     -75055.76       187.2852       188.20135      1153.7028    
     94700  -75472.029      406.06888     -75065.96       187.3052       188.24228      1154.0944    
     94800  -75492.093      409.52346     -75082.57       187.32538      188.28636      1154.486     
     94900  -75503.121      394.935       -75108.186      187.348        188.32784      1154.8776    
     95000  -75508.224      385.86961     -75122.355      187.37281      188.36806      1155.2692    
     95100  -75502.581      390.59279     -75111.988      187.40267      188.40965      1155.6608    
     95200  -75491.113      406.9924      -75084.121      187.43255      188.44675      1156.0525    
     95300  -75489.264      419.75274     -75069.511      187.46759      188.48601      1156.4441    
     95400  -75501.127      411.31975     -75089.808      187.50591      188.52132      1156.8357    
     95500  -75513.111      389.30268     -75123.808      187.54697      188.55496      1157.2273    
     95600  -75518.316      384.03367     -75134.283      187.59296      188.592        1157.6189    
     95700  -75519.685      404.17118     -75115.514      187.63653      188.62873      1158.0105    
     95800  -75517.628      417.21695     -75100.411      187.67877      188.66946      1158.4022    
     95900  -75521.417      408.17958     -75113.237      187.71855      188.71683      1158.7938    
     96000  -75534.247      393.27685     -75140.971      187.75244      188.76795      1159.1854    
     96100  -75541.542      389.45843     -75152.083      187.78186      188.82203      1159.577     
     96200  -75546.376      402.84704     -75143.529      187.81325      188.87912      1159.9686    
     96300  -75542.977      406.44522     -75136.532      187.83992      188.93857      1160.3602    
     96400  -75554.177      409.72692     -75144.45       187.86747      189.00316      1160.7519    
     96500  -75562.283      396.62983     -75165.653      187.89689      189.06661      1161.1435    
     96600  -75566.848      389.63321     -75177.215      187.92828      189.12549      1161.5351    
     96700  -75560.43       394.37702     -75166.053      187.96347      189.17941      1161.9267    
     96800  -75560.826      414.51802     -75146.308      188.00216      189.2268       1162.3183    
     96900  -75558.808      409.12176     -75149.686      188.04207      189.2676       1162.7099    
     97000  -75562.11       394.81343     -75167.297      188.08107      189.30208      1163.1016    
     97100  -75570.424      394.48907     -75175.935      188.11922      189.33371      1163.4932    
     97200  -75580.065      405.65095     -75174.414      188.15499      189.36158      1163.8848    
     97300  -75581.545      404.52079     -75177.024      188.1869       189.38813      1164.2764    
     97400  -75585.713      397.03285     -75188.68       188.21725      189.41104      1164.668     
     97500  -75595.08       398.54781     -75196.532      188.24165      189.42876      1165.0596    
     97600  -75599.689      402.21577     -75197.474      188.26526      189.44669      1165.4513    
     97700  -75605.464      408.96467     -75196.5        188.28399      189.4626       1165.8429    
     97800  -75612.669      404.11825     -75208.551      188.29828      189.4769       1166.2345    
     97900  -75630.923      400.3988      -75230.525      188.31263      189.49207      1166.6261    
     98000  -75640.431      394.92779     -75245.504      188.32401      189.50479      1167.0177    
     98100  -75643.415      397.19762     -75246.217      188.3357       189.51967      1167.4093    
     98200  -75648.979      406.53106     -75242.448      188.34715      189.53695      1167.801     
     98300  -75657.114      409.75845     -75247.356      188.35928      189.5552       1168.1926    
     98400  -75669.53       402.81478     -75266.715      188.37148      189.57496      1168.5842    
     98500  -75676.196      391.86814     -75284.328      188.38296      189.59838      1168.9758    
     98600  -75681.384      396.79113     -75284.593      188.3948       189.6213       1169.3674    
     98700  -75674.947      399.99591     -75274.951      188.40662      189.64383      1169.759     
     98800  -75671.166      407.39401     -75263.772      188.41892      189.66574      1170.1507    
     98900  -75668.233      403.9615      -75264.271      188.4299       189.68539      1170.5423    
     99000  -75671.492      396.372       -75275.12       188.44271      189.70288      1170.9339    
     99100  -75669.943      391.67841     -75278.265      188.45483      189.71668      1171.3255    
     99200  -75671.098      404.51063     -75266.588      188.46767      189.72872      1171.7171    
     99300  -75658.633      404.64708     -75253.985      188.47685      189.73687      1172.1087    
     99400  -75660.317      408.02185     -75252.296      188.48266      189.74399      1172.5004    
     99500  -75660.209      398.40799     -75261.801      188.48743      189.74782      1172.892     
     99600  -75670.922      397.48416     -75273.437      188.48807      189.74806      1173.2836    
     99700  -75673.384      395.15982     -75278.224      188.48797      189.74704      1173.6752    
     99800  -75675.532      402.20244     -75273.33       188.48483      189.74188      1174.0668    
     99900  -75674.341      404.18117     -75270.159      188.4817       189.73393      1174.4584    
    100000  -75680.325      404.00711     -75276.318      188.47829      189.72318      1174.8501    
Loop time of 35922 on 16 procs for 100000 steps with 10336 atoms

Performance: 0.241 ns/day, 99.783 hours/ns, 2.784 timesteps/s, 28.773 katom-step/s
47.6% CPU use with 16 MPI tasks x 1 OpenMP threads

MPI task timing breakdown:
Section |  min time  |  avg time  |  max time  |%varavg| %total
---------------------------------------------------------------
Pair    | 1257       | 1480.9     | 1668.7     | 314.6 |  4.12
Neigh   | 3.8271     | 5.3853     | 6.9082     |  46.7 |  0.01
Comm    | 4899.9     | 5426.1     | 5933.3     | 421.5 | 15.11
Output  | 113.88     | 117.49     | 121.63     |  21.2 |  0.33
Modify  | 25121      | 25529      | 25987      | 157.4 | 71.07
Other   |            | 3363       |            |       |  9.36

Nlocal:            646 ave        1402 max         205 min
Histogram: 4 4 0 1 1 2 2 0 0 2
Nghost:        2192.12 ave        3598 max         904 min
Histogram: 4 4 0 0 0 0 0 2 1 5
Neighs:              0 ave           0 max           0 min
Histogram: 16 0 0 0 0 0 0 0 0 0

Total # of neighbors = 0
Ave neighs/atom = 0
Neighbor list builds = 632
Dangerous builds = 0
Total wall time: 9:58:55
