LAMMPS (2 Aug 2023 - Update 3)
OMP_NUM_THREADS environment is not set. Defaulting to 1 thread. (src/comm.cpp:98)
  using 1 OpenMP thread(s) per MPI task
Reading data file ...
  orthogonal box = (-100 -100 -2.3312512) to (100 100 41.316429)
  8 by 8 by 1 MPI processor grid
  reading atoms ...
  1824 atoms
  read_data CPU = 0.008 seconds
System init for write_data ...
WARNING: Communication cutoff is 0.0. No ghost atoms will be generated. Atoms may get lost. (src/comm_brick.cpp:210)
Reading airebo potential file CH.airebo with DATE: 2011-10-25
Reading airebo potential file CH.airebo with DATE: 2011-10-25
Reading airebo potential file CH.airebo with DATE: 2011-10-25
Neighbor list info ...
  update: every = 1 steps, delay = 0 steps, check = yes
  max neighbors/atom: 2000, page size: 100000
  master list distance cutoff = 13.2
  ghost atom cutoff = 13.2
  binsize = 6.6, bins = 31 31 7
  6 neighbor lists, perpetual/occasional/extra = 6 0 0
  (1) pair airebo, perpetual, skip from (5)
      attributes: full, newton on, ghost
      pair build: skip/ghost
      stencil: none
      bin: none
  (2) pair airebo, perpetual, skip from (5)
      attributes: full, newton on, ghost
      pair build: skip/ghost
      stencil: none
      bin: none
  (3) pair airebo, perpetual, skip from (5)
      attributes: full, newton on, ghost
      pair build: skip/ghost
      stencil: none
      bin: none
  (4) pair lj/cut, perpetual, skip from (6)
      attributes: half, newton on, cut 13
      pair build: skip
      stencil: none
      bin: none
  (5) neighbor class addition, perpetual
      attributes: full, newton on, ghost
      pair build: full/bin/ghost
      stencil: full/ghost/bin/3d
      bin: standard
  (6) neighbor class addition, perpetual
      attributes: half, newton on, cut 13
      pair build: half/bin/atomonly/newton
      stencil: half/bin/3d
      bin: standard
Setting up sd style minimization ...
  Unit style    : metal
  Current step  : 0
Per MPI rank memory allocation (min/avg/max) = 9.69 | 9.786 | 11.51 Mbytes
   Step          Temp          E_pair         E_mol          TotEng         Press     
         0   0             -13140.365      0             -13140.365      705.43265    
         4   0             -13185.178      0             -13185.178      93.415916    
Loop time of 0.0631884 on 64 procs for 4 steps with 1824 atoms

96.8% CPU use with 64 MPI tasks x 1 OpenMP threads

Minimization stats:
  Stopping criterion = energy tolerance
  Energy initial, next-to-last, final = 
     -13140.3646357888  -13184.0564101735  -13185.1783770795
  Force two-norm initial, final = 69.058775 11.513404
  Force max component initial, final = 3.4318528 0.54749295
  Final line search alpha, max atom move = 0.13695896 0.074984064
  Iterations, force evaluations = 4 8

MPI task timing breakdown:
Section |  min time  |  avg time  |  max time  |%varavg| %total
---------------------------------------------------------------
Pair    | 6.188e-06  | 0.0037222  | 0.062133   |  23.6 |  5.89
Neigh   | 0          | 0          | 0          |   0.0 |  0.00
Comm    | 2.798e-06  | 0.00020646 | 0.0059083  |   0.0 |  0.33
Output  | 0          | 0          | 0          |   0.0 |  0.00
Modify  | 0          | 0          | 0          |   0.0 |  0.00
Other   |            | 0.05926    |            |       | 93.78

Nlocal:           28.5 ave         471 max           0 min
Histogram: 60 0 0 0 0 0 0 0 0 4
Nghost:         151.75 ave        2454 max           0 min
Histogram: 60 0 0 0 0 0 0 0 0 4
Neighs:              0 ave           0 max           0 min
Histogram: 64 0 0 0 0 0 0 0 0 0

Total # of neighbors = 0
Ave neighs/atom = 0
Neighbor list builds = 0
Dangerous builds = 0
Setting up Verlet run ...
  Unit style    : metal
  Current step  : 4
  Time step     : 0.001
Per MPI rank memory allocation (min/avg/max) = 10.31 | 10.41 | 12.13 Mbytes
   Step          Temp          E_pair         E_mol          TotEng         Press          Volume    
         4   300           -13185.178      0             -13114.486      136.66436      1745907.2    
Loop time of 0.000137386 on 64 procs for 0 steps with 1824 atoms

52.1% CPU use with 64 MPI tasks x 1 OpenMP threads

MPI task timing breakdown:
Section |  min time  |  avg time  |  max time  |%varavg| %total
---------------------------------------------------------------
Pair    | 0          | 0          | 0          |   0.0 |  0.00
Neigh   | 0          | 0          | 0          |   0.0 |  0.00
Comm    | 0          | 0          | 0          |   0.0 |  0.00
Output  | 0          | 0          | 0          |   0.0 |  0.00
Modify  | 0          | 0          | 0          |   0.0 |  0.00
Other   |            | 0.0001374  |            |       |100.00

Nlocal:           28.5 ave         475 max           0 min
Histogram: 60 0 0 0 0 0 0 0 0 4
Nghost:        151.688 ave        2453 max           0 min
Histogram: 60 0 0 0 0 0 0 0 0 4
Neighs:              0 ave           0 max           0 min
Histogram: 64 0 0 0 0 0 0 0 0 0

Total # of neighbors = 0
Ave neighs/atom = 0
Neighbor list builds = 0
Dangerous builds = 0
WARNING: Dump 2 includes no atom IDs and is not sorted by ID. This may complicate post-processing tasks or visualization (src/dump.cpp:221)
Setting up Verlet run ...
  Unit style    : metal
  Current step  : 0
  Time step     : 0.001
Per MPI rank memory allocation (min/avg/max) = 11.81 | 11.91 | 13.63 Mbytes
   Step         PotEng         KinEng         TotEng           Lx             Ly             Lz      
         0  -13185.178      70.692373     -13114.486      200            200            43.64768     
       100  -13144.079      36.501901     -13107.577      199.98971      199.99055      43.669504    
       200  -13146.341      48.835916     -13097.506      199.97296      199.98087      43.691328    
       300  -13139.021      53.406186     -13085.614      199.98547      200.00431      43.713152    
       400  -13134.708      61.64518      -13073.063      199.96772      200.00805      43.734976    
       500  -13128.042      67.216131     -13060.826      199.93835      200.00901      43.7568      
       600  -13125.11       74.642948     -13050.467      199.93976      200.04034      43.778623    
       700  -13116.463      72.550857     -13043.913      199.91931      200.05435      43.800447    
       800  -13115.989      72.403672     -13043.585      199.87553      200.05223      43.822271    
       900  -13118.154      69.379359     -13048.774      199.84724      200.07194      43.844095    
      1000  -13120.864      67.340114     -13053.524      199.82934      200.10193      43.865919    
      1100  -13121.666      67.442276     -13054.224      199.78209      200.113        43.887743    
      1200  -13118.89       68.326374     -13050.564      199.74359      200.1405       43.909566    
      1300  -13119.92       73.769293     -13046.151      199.71362      200.17431      43.93139     
      1400  -13118.035      73.143541     -13044.892      199.66658      200.19737      43.953214    
      1500  -13119.602      72.082581     -13047.52       199.62783      200.23         43.975038    
      1600  -13121.956      71.609656     -13050.346      199.59718      200.2676       43.996862    
      1700  -13118.305      67.08645      -13051.219      199.55192      200.29334      44.018686    
      1800  -13119.709      70.716639     -13048.993      199.50932      200.31554      44.040509    
      1900  -13114.944      69.582343     -13045.362      199.47998      200.35597      44.062333    
      2000  -13118.621      74.885587     -13043.735      199.42913      200.37204      44.084157    
      2100  -13117.619      71.361112     -13046.258      199.37924      200.38807      44.105981    
      2200  -13119.046      69.65258      -13049.393      199.34361      200.41829      44.127805    
      2300  -13117.397      68.017535     -13049.38       199.3072       200.4455       44.149629    
      2400  -13117.025      70.697614     -13046.327      199.264        200.46165      44.171453    
      2500  -13116.114      72.337324     -13043.776      199.24202      200.49747      44.193276    
      2600  -13114.908      70.918295     -13043.99       199.22466      200.53132      44.2151      
      2700  -13117.707      71.370566     -13046.337      199.19366      200.54483      44.236924    
      2800  -13116.201      68.147903     -13048.053      199.1602       200.55695      44.258748    
      2900  -13116.897      69.950333     -13046.947      199.13073      200.57189      44.280572    
      3000  -13114.714      71.128694     -13043.585      199.09976      200.58441      44.302396    
      3100  -13114.604      72.67566      -13041.928      199.06088      200.591        44.324219    
      3200  -13114.78       70.837266     -13043.942      199.03381      200.60166      44.346043    
      3300  -13116.509      70.101035     -13046.408      199.00104      200.60259      44.367867    
      3400  -13115.8        68.887796     -13046.912      198.97498      200.60798      44.389691    
      3500  -13116.46       71.599965     -13044.86       198.95561      200.62001      44.411515    
      3600  -13116.466      74.176084     -13042.289      198.93259      200.6312       44.433339    
      3700  -13112.771      71.528522     -13041.242      198.90448      200.63821      44.455162    
      3800  -13113.569      72.167227     -13041.402      198.86604      200.63285      44.476986    
      3900  -13111.184      69.583218     -13041.6        198.82867      200.62033      44.49881     
      4000  -13112.35       70.634715     -13041.716      198.80054      200.60723      44.520634    
      4100  -13110.465      69.777538     -13040.688      198.78543      200.61127      44.542458    
      4200  -13108.193      69.861187     -13038.331      198.76416      200.6148       44.564282    
      4300  -13106.985      70.438571     -13036.547      198.74455      200.6304       44.586105    
      4400  -13107.258      69.80707      -13037.451      198.71745      200.65186      44.607929    
      4500  -13108.11       68.621446     -13039.489      198.67652      200.66497      44.629753    
      4600  -13108.152      70.012654     -13038.139      198.6378       200.69293      44.651577    
      4700  -13107.195      71.549638     -13035.646      198.5924       200.72337      44.673401    
      4800  -13107.118      72.752438     -13034.366      198.53152      200.73932      44.695225    
      4900  -13105.572      71.665989     -13033.906      198.48172      200.7626       44.717049    
      5000  -13104.029      70.670778     -13033.358      198.42609      200.77987      44.738872    
      5100  -13103.725      70.887141     -13032.838      198.35473      200.78685      44.760696    
      5200  -13102.826      70.14095      -13032.685      198.30507      200.81597      44.78252     
      5300  -13102.823      70.630183     -13032.193      198.26009      200.85197      44.804344    
      5400  -13100.217      70.082242     -13030.134      198.20266      200.87308      44.826168    
      5500  -13099.279      72.042104     -13027.237      198.15463      200.90153      44.847992    
      5600  -13097.853      71.273706     -13026.58       198.11267      200.94194      44.869815    
      5700  -13098.894      69.424735     -13029.47       198.05874      200.9671       44.891639    
      5800  -13098.081      69.211835     -13028.869      198.00788      200.99631      44.913463    
      5900  -13096.321      70.316396     -13026.005      197.96618      201.03618      44.935287    
      6000  -13096.815      73.031416     -13023.784      197.91371      201.05722      44.957111    
      6100  -13095.129      71.11849      -13024.01       197.85656      201.06802      44.978935    
      6200  -13094.958      70.533006     -13024.425      197.80656      201.08333      45.000758    
      6300  -13094.662      71.373743     -13023.288      197.75861      201.09582      45.022582    
      6400  -13093.222      71.088364     -13022.134      197.70823      201.10445      45.044406    
      6500  -13092.08       69.688473     -13022.391      197.66353      201.12096      45.06623     
      6600  -13093.7        69.780787     -13023.919      197.61599      201.12628      45.088054    
      6700  -13091.619      68.401522     -13023.217      197.5605       201.12035      45.109878    
      6800  -13089.408      71.342085     -13018.066      197.51961      201.12454      45.131701    
      6900  -13087.526      70.908417     -13016.618      197.48273      201.13251      45.153525    
      7000  -13087.542      71.149473     -13016.393      197.43181      201.12954      45.175349    
      7100  -13087.411      71.107262     -13016.303      197.37975      201.13049      45.197173    
      7200  -13086.211      68.967806     -13017.243      197.32931      201.13701      45.218997    
      7300  -13086.409      69.758059     -13016.651      197.27792      201.1351       45.240821    
      7400  -13082.03       69.973125     -13012.057      197.23487      201.14837      45.262645    
      7500  -13080.049      70.796603     -13009.252      197.18873      201.1569       45.284468    
      7600  -13080.093      70.954608     -13009.138      197.13992      201.16218      45.306292    
      7700  -13079.75       69.763203     -13009.986      197.09317      201.17907      45.328116    
      7800  -13076.054      67.179185     -13008.875      197.0405       201.19593      45.34994     
      7900  -13074.029      70.646141     -13003.383      196.98563      201.21222      45.371764    
      8000  -13075.442      73.432452     -13002.01       196.93282      201.24407      45.393588    
      8100  -13073.791      70.17774      -13003.613      196.88641      201.27359      45.415411    
      8200  -13074.813      70.847423     -13003.965      196.8279       201.28581      45.437235    
      8300  -13073.34       70.547598     -13002.792      196.77181      201.29703      45.459059    
      8400  -13071.522      71.971582     -12999.55       196.71404      201.30077      45.480883    
      8500  -13067.528      71.951377     -12995.577      196.63611      201.29208      45.502707    
      8600  -13067.765      72.477719     -12995.288      196.57137      201.30716      45.524531    
      8700  -13067.735      70.890369     -12996.845      196.51254      201.33908      45.546354    
      8800  -13067.473      72.084365     -12995.388      196.43208      201.34723      45.568178    
      8900  -13064.091      71.30331      -12992.788      196.3565       201.36779      45.590002    
      9000  -13060.258      70.691686     -12989.566      196.29175      201.40296      45.611826    
      9100  -13059.507      71.573861     -12987.933      196.21969      201.43042      45.63365     
      9200  -13062.195      71.324602     -12990.871      196.13698      201.45579      45.655474    
      9300  -13059.805      69.591215     -12990.214      196.06278      201.48025      45.677297    
      9400  -13058.092      70.458306     -12987.634      195.98619      201.51298      45.699121    
      9500  -13055.339      71.101854     -12984.237      195.90133      201.53259      45.720945    
      9600  -13056.067      73.258804     -12982.808      195.82076      201.553        45.742769    
      9700  -13055.389      70.057211     -12985.332      195.74889      201.57943      45.764593    
      9800  -13053.19       68.741112     -12984.449      195.67721      201.59601      45.786417    
      9900  -13051.221      69.653725     -12981.568      195.60867      201.61548      45.808241    
     10000  -13049.859      71.744297     -12978.115      195.54271      201.62343      45.830064    
     10100  -13049.106      72.556473     -12976.55       195.46182      201.62286      45.851888    
     10200  -13046.914      70.859229     -12976.055      195.39162      201.6255       45.873712    
     10300  -13046.827      71.676239     -12975.151      195.32035      201.63002      45.895536    
     10400  -13044.327      70.122473     -12974.205      195.24292      201.6287       45.91736     
     10500  -13043.324      70.382975     -12972.941      195.18201      201.63337      45.939184    
     10600  -13039.645      67.616093     -12972.029      195.12245      201.64669      45.961007    
     10700  -13039.748      68.724214     -12971.024      195.05147      201.64183      45.982831    
     10800  -13037.468      68.849533     -12968.619      194.98213      201.64635      46.004655    
     10900  -13037.4        72.62927      -12964.771      194.90839      201.65562      46.026479    
     11000  -13034.613      72.283101     -12962.33       194.8199       201.65653      46.048303    
     11100  -13034.446      71.429028     -12963.017      194.73598      201.66543      46.070127    
     11200  -13032.709      68.942796     -12963.766      194.6641       201.69148      46.09195     
     11300  -13031.327      69.926036     -12961.401      194.58906      201.71251      46.113774    
     11400  -13029.2        70.510069     -12958.69       194.51033      201.72487      46.135598    
     11500  -13028.261      71.735292     -12956.526      194.43752      201.74859      46.157422    
     11600  -13022.87       68.929535     -12953.94       194.35822      201.76468      46.179246    
     11700  -13021.623      71.291662     -12950.332      194.27599      201.77983      46.20107     
     11800  -13020.557      71.210255     -12949.347      194.18924      201.78736      46.222893    
     11900  -13022.975      72.085188     -12950.89       194.0907       201.78056      46.244717    
     12000  -13020.245      69.834481     -12950.41       193.99777      201.7729       46.266541    
     12100  -13018.799      70.816706     -12947.982      193.91359      201.77651      46.288365    
     12200  -13015.599      71.703919     -12943.895      193.82593      201.78281      46.310189    
     12300  -13011.245      70.186056     -12941.058      193.7389       201.79031      46.332013    
     12400  -13014.254      71.741118     -12942.513      193.65433      201.80984      46.353837    
     12500  -13013.129      69.48882      -12943.64       193.5633       201.81287      46.37566     
     12600  -13009.232      68.020994     -12941.211      193.46473      201.81047      46.397484    
     12700  -13006.089      69.243249     -12936.846      193.37202      201.8157       46.419308    
     12800  -13007.759      74.143821     -12933.615      193.27998      201.82718      46.441132    
     12900  -13005.101      72.197107     -12932.903      193.18276      201.84357      46.462956    
     13000  -13004.614      70.473498     -12934.141      193.08017      201.85617      46.48478     
     13100  -13003.476      70.533306     -12932.942      192.98036      201.87908      46.506603    
     13200  -12999.26       68.930002     -12930.33       192.88515      201.90089      46.528427    
     13300  -12997.918      70.908124     -12927.01       192.77963      201.91641      46.550251    
     13400  -12995.803      71.272739     -12924.53       192.67511      201.92419      46.572075    
     13500  -12996.108      69.732875     -12926.375      192.5688       201.92706      46.593899    
     13600  -12993.782      67.838252     -12925.943      192.45799      201.92444      46.615723    
     13700  -12990.727      68.959441     -12921.767      192.35702      201.92992      46.637546    
     13800  -12989.698      71.811319     -12917.886      192.25226      201.94599      46.65937     
     13900  -12987.875      71.301566     -12916.573      192.14318      201.9549       46.681194    
     14000  -12987.274      70.163823     -12917.11       192.03973      201.97575      46.703018    
     14100  -12983.886      67.541713     -12916.344      191.93199      201.98821      46.724842    
     14200  -12984.385      70.490928     -12913.894      191.81693      201.99199      46.746666    
     14300  -12981.834      70.339798     -12911.494      191.71613      202.01246      46.768489    
     14400  -12979.465      70.794169     -12908.671      191.61771      202.03459      46.790313    
     14500  -12976.508      71.900773     -12904.607      191.49475      202.04066      46.812137    
     14600  -12972.612      72.376057     -12900.236      191.36999      202.05132      46.833961    
     14700  -12974.757      74.046122     -12900.711      191.24769      202.07632      46.855785    
     14800  -12972.714      70.534851     -12902.179      191.12252      202.08082      46.877609    
     14900  -12971.542      70.410342     -12901.132      191.00479      202.08183      46.899433    
     15000  -12970.446      71.280356     -12899.166      190.90323      202.08951      46.921256    
     15100  -12965.574      70.723983     -12894.85       190.79207      202.06842      46.94308     
     15200  -12962.737      71.714662     -12891.023      190.68254      202.05674      46.964904    
     15300  -12962.436      72.1482       -12890.288      190.59244      202.0642       46.986728    
     15400  -12961.245      71.341145     -12889.904      190.48411      202.05776      47.008552    
     15500  -12959.382      70.844104     -12888.538      190.38852      202.06081      47.030376    
     15600  -12956.23       69.483053     -12886.747      190.3114       202.07203      47.052199    
     15700  -12954.546      70.962732     -12883.583      190.21397      202.05549      47.074023    
     15800  -12952.015      72.715236     -12879.3        190.11472      202.02772      47.095847    
     15900  -12950.034      74.814229     -12875.22       190.0284       202.02247      47.117671    
     16000  -12946.561      71.802392     -12874.758      189.93643      202.02362      47.139495    
     16100  -12946.19       70.075057     -12876.115      189.83204      202.02181      47.161319    
     16200  -12943.878      69.39408      -12874.484      189.7294       202.02467      47.183142    
     16300  -12941.319      70.077624     -12871.242      189.61779      202.02293      47.204966    
     16400  -12939.716      72.713711     -12867.002      189.49138      202.01432      47.22679     
     16500  -12936.72       72.331105     -12864.389      189.37219      202.01587      47.248614    
     16600  -12936.511      70.471183     -12866.039      189.26093      202.04093      47.270438    
     16700  -12935.218      69.788591     -12865.429      189.14021      202.05952      47.292262    
     16800  -12932.498      69.702801     -12862.795      189.01133      202.08282      47.314086    
     16900  -12931.361      73.201483     -12858.16       188.88418      202.11349      47.335909    
     17000  -12925.577      71.182586     -12854.395      188.75         202.13358      47.357733    
     17100  -12926.254      73.235237     -12853.019      188.61256      202.14876      47.379557    
     17200  -12924.079      71.915623     -12852.163      188.48757      202.16884      47.401381    
     17300  -12921.661      70.581665     -12851.079      188.36218      202.1929       47.423205    
     17400  -12920.932      71.214005     -12849.718      188.24017      202.20811      47.445029    
     17500  -12917.13       69.598499     -12847.531      188.12751      202.23596      47.466852    
     17600  -12915.555      72.830531     -12842.725      188.02062      202.26341      47.488676    
     17700  -12908.893      70.331457     -12838.561      187.91353      202.27616      47.5105      
     17800  -12909.886      73.110784     -12836.775      187.81256      202.2884       47.532324    
     17900  -12906.892      68.940465     -12837.952      187.72413      202.28799      47.554148    
     18000  -12906.545      69.415075     -12837.129      187.62428      202.26856      47.575972    
     18100  -12905.146      71.141969     -12834.004      187.52917      202.25462      47.597795    
     18200  -12902.434      72.500623     -12829.933      187.44912      202.25722      47.619619    
     18300  -12898.542      72.075754     -12826.467      187.36746      202.262        47.641443    
     18400  -12894.183      72.136797     -12822.046      187.28015      202.26026      47.663267    
     18500  -12888.769      70.690926     -12818.079      187.19515      202.25756      47.685091    
     18600  -12890.403      72.101151     -12818.302      187.10478      202.24414      47.706915    
     18700  -12890.457      71.699406     -12818.758      187.01362      202.23116      47.728738    
     18800  -12886.412      69.251059     -12817.161      186.93428      202.22971      47.750562    
     18900  -12885.057      70.116951     -12814.94       186.85407      202.22869      47.772386    
     19000  -12881.286      70.225083     -12811.061      186.76766      202.22871      47.79421     
     19100  -12879.501      73.083612     -12806.417      186.68728      202.2374       47.816034    
     19200  -12877.047      72.345073     -12804.702      186.59897      202.24294      47.837858    
     19300  -12876.172      70.060316     -12806.112      186.5084       202.23573      47.859682    
     19400  -12872.719      68.763368     -12803.956      186.42694      202.2295       47.881505    
     19500  -12872.09       71.924368     -12800.166      186.34548      202.21743      47.903329    
     19600  -12867.935      71.653793     -12796.281      186.25781      202.20197      47.925153    
     19700  -12864.644      71.545202     -12793.099      186.17895      202.20215      47.946977    
     19800  -12865.348      72.048453     -12793.3        186.09986      202.20741      47.968801    
     19900  -12861.946      69.170994     -12792.775      186.01247      202.20549      47.990625    
     20000  -12859.917      71.021391     -12788.895      185.94185      202.20643      48.012448    
     20100  -12855.511      71.626198     -12783.884      185.87496      202.21538      48.034272    
     20200  -12851.813      70.749788     -12781.063      185.80695      202.21922      48.056096    
     20300  -12849.824      69.962487     -12779.862      185.74542      202.23471      48.07792     
     20400  -12848.844      69.870614     -12778.973      185.67901      202.24758      48.099744    
     20500  -12846.887      69.159329     -12777.727      185.6128       202.25064      48.121568    
     20600  -12842.718      66.322769     -12776.395      185.55354      202.26417      48.143391    
     20700  -12841.915      70.057897     -12771.857      185.49268      202.26934      48.165215    
     20800  -12834.396      68.019271     -12766.377      185.42062      202.2647       48.187039    
     20900  -12835.458      72.706709     -12762.751      185.35862      202.26324      48.208863    
     21000  -12832.631      72.136419     -12760.494      185.30219      202.2708       48.230687    
     21100  -12831.351      70.848593     -12760.503      185.236        202.26897      48.252511    
     21200  -12831.068      70.752845     -12760.315      185.17527      202.26937      48.274334    
     21300  -12826.664      69.278137     -12757.386      185.11911      202.27653      48.296158    
     21400  -12822.57       69.014332     -12753.555      185.06196      202.26953      48.317982    
     21500  -12822.251      71.93157      -12750.319      185.00503      202.26423      48.339806    
     21600  -12818.761      71.186333     -12747.575      184.95398      202.25626      48.36163     
     21700  -12816.061      71.01681      -12745.044      184.90271      202.24763      48.383454    
     21800  -12813.198      69.228955     -12743.969      184.8538       202.24215      48.405278    
     21900  -12812.775      69.727888     -12743.047      184.80701      202.22721      48.427101    
     22000  -12810.121      70.682066     -12739.439      184.7613       202.21387      48.448925    
     22100  -12804.669      71.015512     -12733.653      184.71522      202.20216      48.470749    
     22200  -12801.974      71.155353     -12730.819      184.6731       202.19305      48.492573    
     22300  -12802.508      72.465461     -12730.043      184.64264      202.19589      48.514397    
     22400  -12796.951      67.873937     -12729.077      184.61762      202.1989       48.536221    
     22500  -12795.332      69.391296     -12725.94       184.59336      202.18806      48.558044    
     22600  -12792.949      70.39859      -12722.55       184.56629      202.17498      48.579868    
     22700  -12789.859      70.353626     -12719.505      184.53577      202.16021      48.601692    
     22800  -12787.422      71.225343     -12716.197      184.50743      202.14386      48.623516    
     22900  -12784.623      70.658678     -12713.964      184.47921      202.13997      48.64534     
     23000  -12783.171      69.828365     -12713.343      184.45595      202.1313       48.667164    
     23100  -12781.396      70.115196     -12711.281      184.43241      202.12357      48.688987    
     23200  -12776.466      69.579474     -12706.886      184.40583      202.11805      48.710811    
     23300  -12774.86       73.329284     -12701.53       184.3762       202.10909      48.732635    
     23400  -12770.825      72.374328     -12698.45       184.34517      202.10501      48.754459    
     23500  -12767.298      70.592473     -12696.706      184.30993      202.09863      48.776283    
     23600  -12766.397      70.322475     -12696.074      184.27304      202.09261      48.798107    
     23700  -12764.587      67.151466     -12697.435      184.23947      202.08759      48.81993     
     23800  -12763.611      68.790844     -12694.82       184.1991       202.07406      48.841754    
     23900  -12758.912      69.092566     -12689.819      184.16486      202.06248      48.863578    
     24000  -12754.04       69.130342     -12684.91       184.13437      202.0603       48.885402    
     24100  -12752.687      71.983012     -12680.704      184.09001      202.05212      48.907226    
     24200  -12747.545      69.930985     -12677.614      184.05441      202.043        48.92905     
     24300  -12747.864      70.442359     -12677.422      184.02345      202.04709      48.950874    
     24400  -12746.79       69.616261     -12677.174      183.99225      202.04487      48.972697    
     24500  -12742.111      68.295702     -12673.815      183.96756      202.04782      48.994521    
     24600  -12740.299      71.623548     -12668.675      183.94585      202.06158      49.016345    
     24700  -12735.363      70.584416     -12664.779      183.918        202.06564      49.038169    
     24800  -12731.772      69.346124     -12662.426      183.89393      202.06958      49.059993    
     24900  -12732.743      72.394273     -12660.349      183.87326      202.07288      49.081817    
     25000  -12728.786      69.59346      -12659.193      183.84633      202.07029      49.10364     
     25100  -12726.758      67.455474     -12659.302      183.82808      202.07337      49.125464    
     25200  -12723.32       68.144508     -12655.175      183.80937      202.07819      49.147288    
     25300  -12720.633      71.197573     -12649.435      183.78769      202.07223      49.169112    
     25400  -12717.547      72.192513     -12645.355      183.76737      202.06409      49.190936    
     25500  -12711.67       69.768319     -12641.902      183.73702      202.04858      49.21276     
     25600  -12710.102      70.704018     -12639.398      183.70756      202.02686      49.234583    
     25700  -12709.825      70.437467     -12639.388      183.68514      202.02137      49.256407    
     25800  -12707.131      69.436143     -12637.695      183.65907      202.01065      49.278231    
     25900  -12702.051      69.383861     -12632.667      183.63351      201.99897      49.300055    
     26000  -12698.477      70.120059     -12628.357      183.60628      201.99144      49.321879    
     26100  -12696.31       70.99963      -12625.311      183.57827      201.96887      49.343703    
     26200  -12693.147      70.596602     -12622.55       183.56241      201.95673      49.365526    
     26300  -12690.549      70.405859     -12620.144      183.55695      201.94629      49.38735     
     26400  -12689.032      70.971241     -12618.061      183.5438       201.93305      49.409174    
     26500  -12684.66       68.584333     -12616.076      183.53186      201.93381      49.430998    
     26600  -12683.177      70.535932     -12612.641      183.51286      201.93561      49.452822    
     26700  -12679.768      72.869812     -12606.898      183.47941      201.93095      49.474646    
     26800  -12675.471      72.39574      -12603.075      183.45397      201.93277      49.49647     
     26900  -12671.961      69.963948     -12601.997      183.43101      201.94365      49.518293    
     27000  -12673.232      72.358342     -12600.874      183.40704      201.95613      49.540117    
     27100  -12667.969      70.277367     -12597.691      183.37728      201.97679      49.561941    
     27200  -12662.8        69.257223     -12593.542      183.33911      201.99382      49.583765    
     27300  -12659.846      70.924291     -12588.922      183.29651      201.99916      49.605589    
     27400  -12657.138      70.663264     -12586.474      183.24491      202.00596      49.627413    
     27500  -12657.885      70.596179     -12587.289      183.19896      202.0076       49.649236    
     27600  -12654.203      69.513394     -12584.69       183.1632       202.01529      49.67106     
     27700  -12650.742      70.904181     -12579.838      183.13922      202.02224      49.692884    
     27800  -12646.396      71.248612     -12575.148      183.12277      202.01756      49.714708    
     27900  -12642.523      71.121097     -12571.402      183.10997      202.01484      49.736532    
     28000  -12637.261      69.013641     -12568.248      183.09453      202.00211      49.758356    
     28100  -12636.489      70.892263     -12565.596      183.0693       201.98577      49.780179    
     28200  -12635.071      69.726305     -12565.344      183.0503       201.98082      49.802003    
     28300  -12631.948      68.655896     -12563.292      183.03891      201.97443      49.823827    
     28400  -12626.834      69.165061     -12557.669      183.02346      201.95673      49.845651    
     28500  -12625.537      72.601941     -12552.935      183.01468      201.93366      49.867475    
     28600  -12621.395      71.253196     -12550.142      183.00746      201.9114       49.889299    
     28700  -12619.978      71.834952     -12548.143      182.99572      201.88369      49.911122    
     28800  -12616.508      68.471217     -12548.037      182.98704      201.8632       49.932946    
     28900  -12617.138      70.169932     -12546.968      182.97702      201.84834      49.95477     
     29000  -12609.582      67.824055     -12541.758      182.9594       201.83211      49.976594    
     29100  -12607.12       70.261578     -12536.859      182.94171      201.81998      49.998418    
     29200  -12603.382      70.610069     -12532.772      182.93157      201.81015      50.020242    
     29300  -12600.045      71.412728     -12528.632      182.9204       201.79824      50.042066    
     29400  -12596.768      71.557364     -12525.211      182.90688      201.77942      50.063889    
     29500  -12594.982      70.57622      -12524.405      182.89192      201.76865      50.085713    
     29600  -12591.834      68.457275     -12523.377      182.86758      201.77037      50.107537    
     29700  -12590.181      70.500381     -12519.681      182.82907      201.76265      50.129361    
     29800  -12584.327      71.379403     -12512.948      182.79893      201.76428      50.151185    
     29900  -12579.143      69.716184     -12509.427      182.77902      201.77358      50.173009    
     30000  -12580.156      72.775766     -12507.38       182.74362      201.7639       50.194832    
     30100  -12576.331      70.106706     -12506.225      182.71992      201.76864      50.216656    
     30200  -12572.714      67.461774     -12505.252      182.70298      201.78247      50.23848     
     30300  -12572.085      70.313051     -12501.772      182.65523      201.76817      50.260304    
     30400  -12568.746      71.054595     -12497.692      182.6159       201.77427      50.282128    
     30500  -12562.634      69.230387     -12493.404      182.59095      201.8006       50.303952    
     30600  -12560.593      71.53946      -12489.054      182.5431       201.79815      50.325775    
     30700  -12557.33       71.977014     -12485.353      182.50891      201.79935      50.347599    
     30800  -12554.745      70.860403     -12483.884      182.49684      201.80691      50.369423    
     30900  -12551.936      69.127906     -12482.809      182.46528      201.7821       50.391247    
     31000  -12549.062      69.196665     -12479.865      182.44801      201.77031      50.413071    
     31100  -12543.946      70.221493     -12473.725      182.44749      201.7792       50.434895    
     31200  -12540.843      71.734474     -12469.109      182.42175      201.76143      50.456718    
     31300  -12538.578      71.347764     -12467.23       182.39713      201.7436       50.478542    
     31400  -12536.085      70.292485     -12465.793      182.39043      201.73355      50.500366    
     31500  -12534.018      70.880479     -12463.137      182.36994      201.70609      50.52219     
     31600  -12530.662      71.406663     -12459.255      182.34847      201.6765       50.544014    
     31700  -12526.166      70.739741     -12455.426      182.34442      201.66167      50.565838    
     31800  -12521.629      69.576647     -12452.053      182.32616      201.64317      50.587662    
     31900  -12517.319      68.961778     -12448.357      182.30279      201.6204       50.609485    
     32000  -12515.309      71.803819     -12443.505      182.28561      201.61026      50.631309    
     32100  -12510.95       72.012723     -12438.937      182.26362      201.59727      50.653133    
     32200  -12508.802      72.243765     -12436.558      182.23832      201.57542      50.674957    
     32300  -12506.992      70.246697     -12436.745      182.22515      201.55986      50.696781    
     32400  -12502.786      68.736879     -12434.049      182.21601      201.54879      50.718605    
     32500  -12499.283      70.39117      -12428.892      182.19567      201.52677      50.740428    
     32600  -12495.457      71.951213     -12423.506      182.17127      201.50705      50.762252    
     32700  -12491.949      71.701803     -12420.247      182.15894      201.49875      50.784076    
     32800  -12488.037      70.348199     -12417.689      182.13954      201.48475      50.8059      
     32900  -12486.671      70.779038     -12415.892      182.11852      201.47344      50.827724    
     33000  -12484.062      70.385766     -12413.676      182.10949      201.46404      50.849548    
     33100  -12479.803      70.109557     -12409.694      182.08485      201.43857      50.871371    
     33200  -12474.891      72.993484     -12401.897      182.05888      201.41013      50.893195    
     33300  -12470.481      71.944435     -12398.537      182.0498       201.40694      50.915019    
     33400  -12469.041      70.759048     -12398.282      182.03091      201.40236      50.936843    
     33500  -12466.578      69.626312     -12396.952      181.99477      201.38363      50.958667    
     33600  -12465.236      70.883158     -12394.352      181.96486      201.38434      50.980491    
     33700  -12462.158      71.173822     -12390.984      181.92943      201.37926      51.002314    
     33800  -12455.593      70.049614     -12385.544      181.88159      201.35917      51.024138    
     33900  -12452.919      72.60833      -12380.311      181.8472       201.35681      51.045962    
     34000  -12449.765      71.126828     -12378.638      181.81984      201.3558       51.067786    
     34100  -12449.592      71.509441     -12378.082      181.77241      201.34656      51.08961     
     34200  -12444.246      69.145338     -12375.101      181.72594      201.34434      51.111434    
     34300  -12439.689      68.86518      -12370.823      181.69292      201.34914      51.133258    
     34400  -12436.907      71.366225     -12365.541      181.65511      201.34465      51.155081    
     34500  -12434.301      72.608748     -12361.693      181.61666      201.33939      51.176905    
     34600  -12430.045      70.003707     -12360.041      181.59154      201.34276      51.198729    
     34700  -12428.12       67.329079     -12360.791      181.57241      201.3407       51.220553    
     34800  -12424.305      68.387197     -12355.918      181.55145      201.32085      51.242377    
     34900  -12420.684      70.92103      -12349.763      181.533        201.30168      51.264201    
     35000  -12416.123      71.371054     -12344.752      181.5087       201.28529      51.286024    
     35100  -12412.576      71.638092     -12340.938      181.47622      201.2586       51.307848    
     35200  -12408.8        69.903032     -12338.897      181.45595      201.24603      51.329672    
     35300  -12409.901      70.869357     -12339.031      181.44946      201.24219      51.351496    
     35400  -12404.203      68.689736     -12335.513      181.42557      201.21616      51.37332     
     35500  -12398.677      68.563821     -12330.114      181.39596      201.18468      51.395144    
     35600  -12397.319      71.787691     -12325.532      181.38082      201.16437      51.416967    
     35700  -12394.666      73.035579     -12321.63       181.34784      201.12524      51.438791    
     35800  -12388.662      70.443811     -12318.218      181.31544      201.08663      51.460615    
     35900  -12387.057      71.073847     -12315.983      181.30879      201.07149      51.482439    
     36000  -12385.143      69.783983     -12315.359      181.2838       201.0556       51.504263    
     36100  -12381.17       68.89972      -12312.27       181.24799      201.02714      51.526087    
     36200  -12378.021      71.801576     -12306.219      181.23208      201.012        51.54791     
     36300  -12373.682      72.57855      -12301.103      181.20784      200.98886      51.569734    
     36400  -12371.702      73.388025     -12298.314      181.17107      200.95263      51.591558    
     36500  -12367.092      71.047688     -12296.044      181.14667      200.94584      51.613382    
     36600  -12362.432      69.351029     -12293.081      181.11657      200.94274      51.635206    
     36700  -12360.086      71.944689     -12288.142      181.07055      200.92903      51.65703     
     36800  -12356.086      73.588606     -12282.498      181.03356      200.92819      51.678854    
     36900  -12350.329      70.925354     -12279.404      181.00434      200.93013      51.700677    
     37000  -12349.857      71.051065     -12278.806      180.95989      200.92102      51.722501    
     37100  -12345.418      68.877726     -12276.54       180.91138      200.9134       51.744325    
     37200  -12342.259      70.290526     -12271.968      180.87253      200.90875      51.766149    
     37300  -12337.122      69.911558     -12267.211      180.82674      200.89911      51.787973    
     37400  -12335.934      72.218934     -12263.715      180.77476      200.88533      51.809797    
     37500  -12331.665      70.936746     -12260.728      180.72881      200.875        51.83162     
     37600  -12327.65       69.633113     -12258.016      180.67914      200.8686       51.853444    
     37700  -12323.728      68.368206     -12255.36       180.62998      200.85065      51.875268    
     37800  -12322.423      71.199156     -12251.224      180.59239      200.83321      51.897092    
     37900  -12316.122      70.687837     -12245.434      180.5674       200.82509      51.918916    
     38000  -12313.785      72.90725      -12240.877      180.54142      200.80107      51.94074     
     38100  -12309.573      70.175553     -12239.397      180.51046      200.77322      51.962563    
     38200  -12306.912      68.209761     -12238.702      180.48142      200.74887      51.984387    
     38300  -12305.077      70.332112     -12234.745      180.44974      200.71254      52.006211    
     38400  -12300.423      70.434427     -12229.989      180.42183      200.6743       52.028035    
     38500  -12294.761      69.413852     -12225.347      180.40456      200.63897      52.049859    
     38600  -12293.659      72.476601     -12221.183      180.38726      200.60051      52.071683    
     38700  -12289.132      70.415942     -12218.716      180.36469      200.56202      52.093506    
     38800  -12286.905      69.383666     -12217.521      180.34275      200.52431      52.11533     
     38900  -12284.136      69.451482     -12214.684      180.31655      200.48906      52.137154    
     39000  -12279.59       70.34259      -12209.248      180.28649      200.46265      52.158978    
     39100  -12274.929      71.792833     -12203.136      180.24706      200.43148      52.180802    
     39200  -12272.075      72.270802     -12199.805      180.20105      200.40343      52.202626    
     39300  -12269.107      71.414797     -12197.692      180.16263      200.38155      52.22445     
     39400  -12266.151      70.103642     -12196.048      180.11554      200.35513      52.246273    
     39500  -12264.344      68.339466     -12196.005      180.06396      200.3317       52.268097    
     39600  -12258.394      66.910102     -12191.484      180.01881      200.315        52.289921    
     39700  -12255.22       69.401392     -12185.819      179.96031      200.29541      52.311745    
     39800  -12252.577      71.811866     -12180.765      179.89909      200.27572      52.333569    
     39900  -12247.903      72.640516     -12175.262      179.85315      200.26877      52.355393    
     40000  -12241.955      70.310717     -12171.644      179.80639      200.25831      52.377216    
     40100  -12242.158      71.102241     -12171.055      179.74974      200.2342       52.39904     
     40200  -12237.987      68.927667     -12169.059      179.70127      200.21477      52.420864    
     40300  -12234.534      69.929067     -12164.605      179.65805      200.19202      52.442688    
     40400  -12230.398      70.97334      -12159.425      179.60207      200.16215      52.464512    
     40500  -12225.855      70.97641      -12154.878      179.55298      200.14343      52.486336    
     40600  -12221.769      70.578669     -12151.191      179.50926      200.1282       52.508159    
     40700  -12219.268      71.704332     -12147.564      179.45272      200.10634      52.529983    
     40800  -12214.495      69.112768     -12145.382      179.40377      200.08205      52.551807    
     40900  -12213.591      68.113683     -12145.477      179.35731      200.05353      52.573631    
     41000  -12210.369      69.769579     -12140.6        179.30358      200.0157       52.595455    
     41100  -12205.299      70.872801     -12134.426      179.26177      199.97545      52.617279    
     41200  -12201.156      71.77654      -12129.38       179.22774      199.94468      52.639103    
     41300  -12196.084      70.916208     -12125.168      179.18499      199.90705      52.660926    
     41400  -12193.473      71.033952     -12122.439      179.13966      199.86578      52.68275     
     41500  -12193.035      70.826953     -12122.208      179.09163      199.83179      52.704574    
     41600  -12189.172      69.627925     -12119.544      179.03731      199.78417      52.726398    
     41700  -12183.958      70.398394     -12113.56       178.98254      199.73819      52.748222    
     41800  -12179.488      70.910812     -12108.577      178.94229      199.70303      52.770046    
     41900  -12175.418      70.967802     -12104.45       178.90446      199.66437      52.791869    
     42000  -12173.56       72.47155      -12101.088      178.85598      199.62094      52.813693    
     42100  -12168.233      68.538941     -12099.695      178.81408      199.58333      52.835517    
     42200  -12168.253      69.956026     -12098.297      178.76824      199.54394      52.857341    
     42300  -12162.702      69.392146     -12093.31       178.70812      199.49598      52.879165    
     42400  -12158.118      71.854868     -12086.263      178.64983      199.45323      52.900989    
     42500  -12154.504      71.870611     -12082.634      178.59477      199.41357      52.922812    
     42600  -12151.192      70.784721     -12080.407      178.53766      199.37366      52.944636    
     42700  -12148.347      70.104758     -12078.242      178.48565      199.34162      52.96646     
     42800  -12146.019      70.270587     -12075.749      178.43853      199.31749      52.988284    
     42900  -12139.564      68.991873     -12070.572      178.38478      199.29214      53.010108    
     43000  -12136.644      72.594356     -12064.049      178.32021      199.25776      53.031932    
     43100  -12131.046      70.49887      -12060.547      178.25517      199.22721      53.053755    
     43200  -12129.275      70.220249     -12059.055      178.19016      199.20015      53.075579    
     43300  -12126.595      69.224687     -12057.371      178.11618      199.16907      53.097403    
     43400  -12122.322      69.727023     -12052.595      178.04572      199.1402       53.119227    
     43500  -12117.493      70.831563     -12046.662      177.98837      199.12178      53.141051    
     43600  -12113.723      70.735501     -12042.987      177.91614      199.09244      53.162875    
     43700  -12110.877      71.116351     -12039.761      177.83298      199.05295      53.184699    
     43800  -12107.456      70.185789     -12037.27       177.76513      199.0272       53.206522    
     43900  -12104.922      69.515839     -12035.406      177.69462      198.9979       53.228346    
     44000  -12101.969      70.317296     -12031.651      177.61595      198.95407      53.25017     
     44100  -12096.467      72.319332     -12024.147      177.55277      198.92377      53.271994    
     44200  -12091.186      71.353531     -12019.833      177.49355      198.8907       53.293818    
     44300  -12088.47       71.083712     -12017.386      177.4191       198.8421       53.315642    
     44400  -12086.006      70.113805     -12015.892      177.35238      198.79694      53.337465    
     44500  -12083.269      69.588848     -12013.68       177.2983       198.7521       53.359289    
     44600  -12078.492      69.151192     -12009.341      177.23848      198.70367      53.381113    
     44700  -12073.741      71.123033     -12002.618      177.18307      198.65324      53.402937    
     44800  -12068.335      70.678752     -11997.657      177.13724      198.60872      53.424761    
     44900  -12066.636      71.319483     -11995.317      177.09036      198.55838      53.446585    
     45000  -12063.364      68.850856     -11994.513      177.03138      198.48768      53.468408    
     45100  -12060.908      70.015218     -11990.893      176.97468      198.42545      53.490232    
     45200  -12057.126      71.109011     -11986.017      176.92058      198.3688       53.512056    
     45300  -12052.443      71.064103     -11981.379      176.85633      198.30431      53.53388     
     45400  -12048.298      70.754494     -11977.543      176.79747      198.25325      53.555704    
     45500  -12044.596      70.55019      -11974.046      176.74426      198.20299      53.577528    
     45600  -12042.338      71.901346     -11970.437      176.67112      198.13754      53.599351    
     45700  -12038.734      71.391794     -11967.342      176.59697      198.08088      53.621175    
     45800  -12035.491      69.303152     -11966.187      176.52898      198.03466      53.642999    
     45900  -12032.275      69.155868     -11963.119      176.45055      197.98769      53.664823    
     46000  -12027.135      70.823406     -11956.312      176.37882      197.94654      53.686647    
     46100  -12022.929      71.688271     -11951.241      176.31304      197.91303      53.708471    
     46200  -12020.104      71.602362     -11948.502      176.23069      197.87488      53.730295    
     46300  -12016.835      70.223596     -11946.611      176.14387      197.83401      53.752118    
     46400  -12011.946      68.867097     -11943.079      176.06632      197.80583      53.773942    
     46500  -12009.48       73.250246     -11936.23       175.98074      197.77286      53.795766    
     46600  -12002.805      72.491634     -11930.313      175.8905       197.72682      53.81759     
     46700  -11998.996      70.242889     -11928.753      175.80833      197.69517      53.839414    
     46800  -11997.115      70.201408     -11926.914      175.7302       197.66692      53.861238    
     46900  -11995.136      71.094305     -11924.041      175.65052      197.62924      53.883061    
     47000  -11990.989      70.539263     -11920.449      175.57051      197.59116      53.904885    
     47100  -11984.94       69.901937     -11915.038      175.49155      197.54756      53.926709    
     47200  -11981.647      72.468312     -11909.178      175.40345      197.49326      53.948533    
     47300  -11978.688      71.882493     -11906.805      175.32009      197.44135      53.970357    
     47400  -11977.091      71.174466     -11905.916      175.25182      197.39452      53.992181    
     47500  -11972.959      70.280252     -11902.678      175.18898      197.34418      54.014004    
     47600  -11969.429      70.821688     -11898.607      175.12685      197.28888      54.035828    
     47700  -11965.245      72.676483     -11892.568      175.06443      197.22914      54.057652    
     47800  -11959.366      73.125914     -11886.24       174.99378      197.16794      54.079476    
     47900  -11954.874      70.890198     -11883.983      174.9204       197.10814      54.1013      
     48000  -11952.802      70.890357     -11881.911      174.85373      197.04958      54.123124    
     48100  -11950.789      71.888182     -11878.901      174.79314      196.99471      54.144947    
     48200  -11947.695      70.957689     -11876.737      174.73619      196.94227      54.166771    
     48300  -11943.776      69.465395     -11874.311      174.67557      196.89446      54.188595    
     48400  -11939.297      69.434828     -11869.862      174.60976      196.85047      54.210419    
     48500  -11933.57       71.2944       -11862.276      174.54015      196.7976       54.232243    
     48600  -11929.552      71.543812     -11858.009      174.46833      196.74026      54.254067    
     48700  -11926.851      70.729244     -11856.122      174.39954      196.68819      54.275891    
     48800  -11924.721      70.175748     -11854.546      174.32875      196.63797      54.297714    
     48900  -11920.44       69.966159     -11850.474      174.25356      196.59065      54.319538    
     49000  -11916.099      70.482062     -11845.617      174.18607      196.55067      54.341362    
     49100  -11913.43       72.047844     -11841.382      174.11427      196.5083       54.363186    
     49200  -11908.885      70.828112     -11838.057      174.04068      196.46296      54.38501     
     49300  -11905.406      70.468505     -11834.937      173.96262      196.41591      54.406834    
     49400  -11903.188      71.715253     -11831.473      173.88118      196.37192      54.428657    
     49500  -11898.609      70.716698     -11827.892      173.8002       196.32931      54.450481    
     49600  -11895.408      72.177996     -11823.23       173.71504      196.28794      54.472305    
     49700  -11889.573      70.968813     -11818.604      173.6341       196.25138      54.494129    
     49800  -11886.808      71.550539     -11815.257      173.55667      196.22061      54.515953    
     49900  -11885.464      72.361305     -11813.103      173.47584      196.19314      54.537777    
     50000  -11879.099      68.039984     -11811.059      173.39628      196.15983      54.5596      
     50100  -11878.642      71.153208     -11807.489      173.31723      196.12358      54.581424    
     50200  -11870.993      70.917712     -11800.075      173.23957      196.07896      54.603248    
     50300  -11865.201      70.60035      -11794.601      173.16939      196.03437      54.625072    
     50400  -11861.654      70.120436     -11791.534      173.10846      195.99546      54.646896    
     50500  -11861.263      70.957432     -11790.306      173.05473      195.95882      54.66872     
     50600  -11856.345      69.042621     -11787.302      172.99515      195.91603      54.690543    
     50700  -11852.094      69.146795     -11782.948      172.93456      195.86705      54.712367    
     50800  -11848.165      69.675322     -11778.49       172.87289      195.81507      54.734191    
     50900  -11845.216      71.210221     -11774.005      172.80852      195.76207      54.756015    
     51000  -11841.078      70.460083     -11770.618      172.7525       195.71121      54.777839    
     51100  -11837.058      68.043218     -11769.015      172.70151      195.66027      54.799663    
     51200  -11834.808      69.339844     -11765.468      172.65074      195.60942      54.821487    
     51300  -11831.112      71.573836     -11759.538      172.59821      195.56008      54.84331     
     51400  -11824.052      70.315496     -11753.737      172.54231      195.51111      54.865134    
     51500  -11822.56       71.987483     -11750.573      172.48289      195.4638       54.886958    
     51600  -11819.851      69.045605     -11750.805      172.42347      195.4208       54.908782    
     51700  -11815.39       68.358495     -11747.031      172.36561      195.3775       54.930606    
     51800  -11814.054      72.528811     -11741.525      172.30935      195.33127      54.95243     
     51900  -11805.184      69.455345     -11735.729      172.25543      195.28772      54.974253    
     52000  -11801.996      70.370214     -11731.626      172.19634      195.24554      54.996077    
     52100  -11801.181      69.560378     -11731.62       172.12759      195.20298      55.017901    
     52200  -11798.159      69.233011     -11728.926      172.05719      195.16334      55.039725    
     52300  -11793.214      70.10264      -11723.112      171.99237      195.12732      55.061549    
     52400  -11788.535      71.215747     -11717.319      171.92376      195.09201      55.083373    
     52500  -11784.225      70.887468     -11713.337      171.85951      195.06331      55.105196    
     52600  -11781.322      70.357042     -11710.965      171.80043      195.03658      55.12702     
     52700  -11778.982      70.173028     -11708.809      171.74091      195.00897      55.148844    
     52800  -11775.401      70.620882     -11704.78       171.6831       194.98017      55.170668    
     52900  -11771.16       70.876659     -11700.283      171.62572      194.95024      55.192492    
     53000  -11766.609      70.821116     -11695.788      171.56801      194.92232      55.214316    
     53100  -11763.352      72.243263     -11691.108      171.50758      194.89299      55.236139    
     53200  -11759.008      72.498529     -11686.509      171.45386      194.86668      55.257963    
     53300  -11755.139      71.577775     -11683.561      171.40483      194.84605      55.279787    
     53400  -11751.718      69.383462     -11682.334      171.35281      194.82212      55.301611    
     53500  -11748.446      69.492714     -11678.953      171.29962      194.78882      55.323435    
     53600  -11743.592      70.658645     -11672.934      171.25158      194.75733      55.345259    
     53700  -11738.136      71.981886     -11666.154      171.19693      194.71736      55.367083    
     53800  -11733.958      71.096899     -11662.861      171.13845      194.66969      55.388906    
     53900  -11732.798      72.327302     -11660.47       171.08836      194.63139      55.41073     
     54000  -11728.335      70.203336     -11658.132      171.04021      194.59375      55.432554    
     54100  -11725.656      70.599685     -11655.056      170.99063      194.55257      55.454378    
     54200  -11721.403      69.512657     -11651.891      170.95367      194.52224      55.476202    
     54300  -11717.578      68.232447     -11649.345      170.91525      194.48921      55.498026    
     54400  -11716.701      71.716581     -11644.984      170.86547      194.4434       55.519849    
     54500  -11712.114      73.702852     -11638.411      170.82398      194.40491      55.541673    
     54600  -11706.015      72.655449     -11633.36       170.7822       194.36838      55.563497    
     54700  -11701.299      70.354316     -11630.945      170.73493      194.32202      55.585321    
     54800  -11699.68       69.410027     -11630.27       170.70218      194.29183      55.607145    
     54900  -11695.677      69.726149     -11625.951      170.67344      194.26828      55.628969    
     55000  -11690.791      70.403206     -11620.387      170.63188      194.22662      55.650792    
     55100  -11686.376      71.004937     -11615.371      170.59621      194.19274      55.672616    
     55200  -11680.92       69.080217     -11611.84       170.56485      194.16403      55.69444     
     55300  -11680.136      68.298136     -11611.838      170.52156      194.12199      55.716264    
     55400  -11678.462      70.66645      -11607.795      170.48086      194.08671      55.738088    
     55500  -11671.066      70.136615     -11600.93       170.45012      194.06422      55.759912    
     55600  -11666.514      70.941993     -11595.572      170.40755      194.03969      55.781735    
     55700  -11661.28       69.051308     -11592.228      170.36336      194.01497      55.803559    
     55800  -11660.654      70.205265     -11590.449      170.32736      193.99876      55.825383    
     55900  -11659.056      70.362842     -11588.693      170.27759      193.97378      55.847207    
     56000  -11653.989      69.765069     -11584.224      170.22502      193.93719      55.869031    
     56100  -11648.005      68.853469     -11579.152      170.17993      193.91066      55.890855    
     56200  -11645.047      71.119979     -11573.927      170.14219      193.89197      55.912679    
     56300  -11639.407      70.499275     -11568.907      170.09781      193.86774      55.934502    
     56400  -11636.122      70.68785      -11565.434      170.05128      193.84818      55.956326    
     56500  -11634.686      70.142903     -11564.543      170.00758      193.83037      55.97815     
     56600  -11631.611      70.249253     -11561.362      169.95399      193.80341      55.999974    
     56700  -11625.62       69.790506     -11555.83       169.90517      193.77741      56.021798    
     56800  -11621.441      72.208483     -11549.233      169.86745      193.76098      56.043622    
     56900  -11615.543      70.567782     -11544.975      169.82756      193.73903      56.065445    
     57000  -11611.904      70.42772      -11541.476      169.79458      193.71614      56.087269    
     57100  -11610.7        72.244391     -11538.456      169.76683      193.7          56.109093    
     57200  -11608.374      71.964965     -11536.409      169.73215      193.67617      56.130917    
     57300  -11602.886      69.475035     -11533.411      169.70204      193.65267      56.152741    
     57400  -11598.46       70.162112     -11528.298      169.67438      193.63454      56.174565    
     57500  -11593.109      72.620625     -11520.489      169.64239      193.60305      56.196388    
     57600  -11586.913      71.091131     -11515.822      169.61314      193.57482      56.218212    
     57700  -11586.71       72.842227     -11513.868      169.58993      193.55394      56.240036    
     57800  -11581.031      69.984035     -11511.047      169.56181      193.52744      56.26186     
     57900  -11581.61       73.165062     -11508.445      169.53283      193.50521      56.283684    
     58000  -11576.691      71.114715     -11505.577      169.50422      193.4846       56.305508    
     58100  -11571.072      69.412151     -11501.66       169.46374      193.45924      56.327331    
     58200  -11566.774      70.123782     -11496.65       169.42484      193.43802      56.349155    
     58300  -11562.098      71.603102     -11490.495      169.3883       193.41643      56.370979    
     58400  -11558.66       72.108654     -11486.551      169.34729      193.39485      56.392803    
     58500  -11556.43       70.975906     -11485.455      169.31601      193.37511      56.414627    
     58600  -11552.858      70.279349     -11482.579      169.28527      193.36095      56.436451    
     58700  -11548.887      70.717013     -11478.17       169.24797      193.33779      56.458275    
     58800  -11543.222      71.225012     -11471.997      169.21425      193.30931      56.480098    
     58900  -11536.352      71.80952      -11464.543      169.18847      193.28649      56.501922    
     59000  -11535.887      74.417886     -11461.469      169.16302      193.25864      56.523746    
     59100  -11529.481      69.949189     -11459.532      169.13385      193.23163      56.54557     
     59200  -11527.73       71.340896     -11456.389      169.11353      193.21459      56.567394    
     59300  -11526.139      72.132122     -11454.007      169.08814      193.19737      56.589218    
     59400  -11518.971      68.170268     -11450.8        169.05938      193.17701      56.611041    
     59500  -11517.189      71.805726     -11445.383      169.03754      193.16249      56.632865    
     59600  -11508.065      70.679427     -11437.386      169.0102       193.14371      56.654689    
     59700  -11504.759      71.709536     -11433.05       168.98298      193.11153      56.676513    
     59800  -11502.289      71.860155     -11430.429      168.96313      193.08905      56.698337    
     59900  -11498.991      71.35438      -11427.637      168.94766      193.0662       56.720161    
     60000  -11495.005      69.873834     -11425.131      168.92545      193.04167      56.741984    
     60100  -11491.554      69.740725     -11421.813      168.90174      193.02564      56.763808    
     60200  -11489.483      71.308035     -11418.175      168.87485      193.01108      56.785632    
     60300  -11485.544      69.4284       -11416.115      168.84094      192.99312      56.807456    
     60400  -11483.289      69.904297     -11413.385      168.80843      192.9696       56.82928     
     60500  -11476.726      69.937218     -11406.789      168.77631      192.94805      56.851104    
     60600  -11471.772      71.776044     -11399.996      168.74573      192.92217      56.872927    
     60700  -11464.829      69.104494     -11395.724      168.72039      192.89542      56.894751    
     60800  -11463.344      70.677866     -11392.666      168.70088      192.87502      56.916575    
     60900  -11459.907      70.22664      -11389.68       168.68293      192.8542       56.938399    
     61000  -11454.571      68.680288     -11385.89       168.66013      192.84287      56.960223    
     61100  -11454.451      70.837954     -11383.613      168.6295       192.83584      56.982047    
     61200  -11449.109      67.349922     -11381.759      168.59765      192.82801      57.003871    
     61300  -11444.22       69.161927     -11375.058      168.57119      192.82327      57.025694    
     61400  -11438.36       70.870245     -11367.49       168.54457      192.81295      57.047518    
     61500  -11434.414      72.02415      -11362.389      168.52334      192.80219      57.069342    
     61600  -11429.511      70.390624     -11359.12       168.50786      192.79207      57.091166    
     61700  -11427.934      70.055812     -11357.879      168.48248      192.77097      57.11299     
     61800  -11423.491      70.334818     -11353.156      168.45976      192.74878      57.134814    
     61900  -11417.996      70.91536      -11347.081      168.44367      192.73792      57.156637    
     62000  -11414.356      72.527406     -11341.828      168.41245      192.71094      57.178461    
     62100  -11407.378      68.265193     -11339.113      168.38297      192.6774       57.200285    
     62200  -11407.713      69.906823     -11337.807      168.36945      192.66186      57.222109    
     62300  -11403.088      70.087015     -11333.001      168.34951      192.62646      57.243933    
     62400  -11397.993      71.634422     -11326.359      168.32603      192.58255      57.265757    
     62500  -11393.351      73.52361      -11319.828      168.31617      192.55657      57.28758     
     62600  -11388.672      71.15636      -11317.515      168.29478      192.52283      57.309404    
     62700  -11384.667      68.807532     -11315.86       168.26985      192.49348      57.331228    
     62800  -11380.567      70.490724     -11310.076      168.25379      192.48055      57.353052    
     62900  -11374.446      70.790061     -11303.655      168.22946      192.46721      57.374876    
     63000  -11370.036      70.726408     -11299.309      168.20565      192.45415      57.3967      
     63100  -11367.949      70.447244     -11297.501      168.18513      192.45223      57.418524    
     63200  -11365.208      71.487163     -11293.721      168.16612      192.44521      57.440347    
     63300  -11359.083      70.794336     -11288.288      168.14847      192.43568      57.462171    
     63400  -11354.979      71.954571     -11283.024      168.1335       192.42891      57.483995    
     63500  -11349.789      71.096544     -11278.692      168.10777      192.41584      57.505819    
     63600  -11348.703      72.592124     -11276.111      168.07807      192.40121      57.527643    
     63700  -11340.911      68.578455     -11272.332      168.05086      192.3905       57.549467    
     63800  -11337.049      70.258693     -11266.79       168.02488      192.37956      57.57129     
     63900  -11329.691      69.969728     -11259.721      167.9965       192.36255      57.593114    
     64000  -11325.928      73.067179     -11252.861      167.96604      192.34395      57.614938    
     64100  -11322.179      71.327608     -11250.851      167.9404       192.32238      57.636762    
     64200  -11319.384      71.096093     -11248.288      167.91926      192.30592      57.658586    
     64300  -11315.11       71.058834     -11244.051      167.89783      192.28122      57.68041     
     64400  -11308.031      68.133659     -11239.897      167.87619      192.24996      57.702233    
     64500  -11307.075      71.197589     -11235.877      167.86016      192.22416      57.724057    
     64600  -11301.015      68.156695     -11232.858      167.83625      192.18717      57.745881    
     64700  -11298.718      69.989144     -11228.729      167.81839      192.16565      57.767705    
     64800  -11291.617      71.080606     -11220.536      167.80635      192.15222      57.789529    
     64900  -11284.906      71.276345     -11213.63       167.78557      192.13481      57.811353    
     65000  -11282.296      72.679553     -11209.617      167.77739      192.12826      57.833176    
     65100  -11278.074      71.020651     -11207.053      167.76562      192.11702      57.855       
     65200  -11273.262      70.627599     -11202.634      167.74394      192.09227      57.876824    
     65300  -11269.71       71.763197     -11197.947      167.73051      192.08042      57.898648    
     65400  -11266.21       71.724526     -11194.485      167.71327      192.07172      57.920472    
     65500  -11261.63       70.0377       -11191.592      167.68532      192.05305      57.942296    
     65600  -11255.894      68.890993     -11187.003      167.66255      192.04766      57.96412     
     65700  -11249.501      71.690667     -11177.811      167.63398      192.03488      57.985943    
     65800  -11243.927      72.768289     -11171.159      167.59896      192.01295      58.007767    
     65900  -11240.084      72.188615     -11167.895      167.57349      191.99793      58.029591    
     66000  -11236.425      71.876481     -11164.549      167.54825      191.97966      58.051415    
     66100  -11231.318      71.1157       -11160.203      167.52305      191.95919      58.073239    
     66200  -11227.652      71.769182     -11155.883      167.49817      191.93735      58.095063    
     66300  -11219.498      67.967762     -11151.53       167.47551      191.91526      58.116886    
     66400  -11216.63       68.821066     -11147.809      167.45378      191.89901      58.13871     
     66500  -11214.478      69.698086     -11144.78       167.42735      191.88303      58.160534    
     66600  -11207.623      69.773581     -11137.849      167.41172      191.87256      58.182358    
     66700  -11199.76       70.382702     -11129.378      167.40085      191.86395      58.204182    
     66800  -11193.063      69.738336     -11123.325      167.38745      191.8444       58.226006    
     66900  -11192.024      72.818686     -11119.206      167.37832      191.82632      58.247829    
     67000  -11186.157      70.590729     -11115.567      167.36821      191.80478      58.269653    
     67100  -11180.72       69.793825     -11110.926      167.35231      191.77098      58.291477    
     67200  -11175.742      69.967129     -11105.775      167.34037      191.74866      58.313301    
     67300  -11172.168      71.185218     -11100.983      167.33292      191.73372      58.335125    
     67400  -11168.272      69.589002     -11098.683      167.31648      191.71272      58.356949    
     67500  -11164.16       70.93458      -11093.226      167.29715      191.69326      58.378772    
     67600  -11156.235      70.12258      -11086.112      167.27379      191.67058      58.400596    
     67700  -11150.753      71.828819     -11078.924      167.24417      191.64247      58.42242     
     67800  -11146.587      72.248636     -11074.338      167.21837      191.61745      58.444244    
     67900  -11141.674      69.428609     -11072.246      167.2001       191.60249      58.466068    
     68000  -11136.725      70.372457     -11066.352      167.18029      191.58504      58.487892    
     68100  -11130.798      70.906021     -11059.892      167.15733      191.56301      58.509716    
     68200  -11124.573      71.577049     -11052.996      167.13493      191.54723      58.531539    
     68300  -11119.075      70.118463     -11048.957      167.11084      191.52674      58.553363    
     68400  -11116.918      72.045859     -11044.873      167.08876      191.51378      58.575187    
     68500  -11110.744      71.427221     -11039.317      167.07857      191.511        58.597011    
     68600  -11103.691      69.955412     -11033.736      167.06376      191.50019      58.618835    
     68700  -11099.941      69.194211     -11030.747      167.04512      191.48233      58.640659    
     68800  -11094.609      69.074612     -11025.535      167.0288       191.46133      58.662482    
     68900  -11088.384      70.896817     -11017.487      167.01299      191.44096      58.684306    
     69000  -11080.607      73.624593     -11006.983      166.99953      191.41853      58.70613     
     69100  -11074.895      73.366337     -11001.529      166.98598      191.40123      58.727954    
     69200  -11070.756      73.258632     -10997.498      166.96976      191.3787       58.749778    
     69300  -11067.088      73.664928     -10993.423      166.94979      191.35229      58.771602    
     69400  -11061.646      72.826916     -10988.819      166.92533      191.32501      58.793425    
     69500  -11058.556      74.165202     -10984.391      166.90585      191.30263      58.815249    
     69600  -11050.126      70.409552     -10979.716      166.88575      191.28543      58.837073    
     69700  -11044.702      71.109886     -10973.593      166.86326      191.26508      58.858897    
     69800  -11039.591      71.119557     -10968.471      166.84218      191.24863      58.880721    
     69900  -11033.51       68.779252     -10964.731      166.81943      191.22649      58.902545    
     70000  -11028.015      70.56891      -10957.446      166.79807      191.20528      58.924368    
     70100  -11022.249      72.695247     -10949.554      166.7822       191.19163      58.946192    
     70200  -11014.597      71.35652      -10943.24       166.76763      191.1788       58.968016    
     70300  -11008.774      70.161401     -10938.613      166.75036      191.17         58.98984     
     70400  -11004.788      71.608842     -10933.179      166.73562      191.16731      59.011664    
     70500  -10997.371      70.011104     -10927.36       166.71388      191.15154      59.033488    
     70600  -10992.536      71.346138     -10921.19       166.69071      191.12946      59.055312    
     70700  -10987.473      72.254756     -10915.218      166.6745       191.11196      59.077135    
     70800  -10980.511      71.784685     -10908.726      166.65752      191.08503      59.098959    
     70900  -10973.54       71.122593     -10902.417      166.63503      191.05625      59.120783    
     71000  -10969.504      72.729687     -10896.774      166.61772      191.03539      59.142607    
     71100  -10961.341      70.461996     -10890.879      166.59707      191.01323      59.164431    
     71200  -10957.032      71.781628     -10885.25       166.5709       190.99263      59.186255    
     71300  -10951.817      73.006912     -10878.81       166.5484       190.98198      59.208078    
     71400  -10946.691      73.796551     -10872.894      166.52487      190.96844      59.229902    
     71500  -10939.207      71.755681     -10867.451      166.50411      190.95367      59.251726    
     71600  -10933.971      72.40307      -10861.568      166.48765      190.93947      59.27355     
     71700  -10926.928      71.104713     -10855.823      166.46987      190.92555      59.295374    
     71800  -10922.033      73.295024     -10848.738      166.45008      190.91182      59.317198    
     71900  -10914.489      72.667701     -10841.821      166.43017      190.8978       59.339021    
     72000  -10906.495      70.902436     -10835.593      166.41518      190.89044      59.360845    
     72100  -10902.782      74.255832     -10828.526      166.39825      190.87391      59.382669    
     72200  -10895.571      72.668619     -10822.903      166.37884      190.8506       59.404493    
     72300  -10889.22       72.327777     -10816.892      166.36782      190.83541      59.426317    
     72400  -10883.41       71.761554     -10811.649      166.3528       190.80627      59.448141    
     72500  -10879.633      73.124406     -10806.508      166.33652      190.77921      59.469964    
     72600  -10873.626      73.301091     -10800.325      166.32577      190.75993      59.491788    
     72700  -10863.928      70.671555     -10793.257      166.30585      190.72927      59.513612    
     72800  -10858.114      72.136918     -10785.978      166.28797      190.70012      59.535436    
     72900  -10851.674      71.380078     -10780.294      166.28018      190.68033      59.55726     
[...]
     81700  -12782.545      71.59734      -12710.947      167.72083      192.10344      61.477758    
     81800  -12781.734      74.784242     -12706.95       167.7504       192.1429       61.499582    
     81900  -12780.947      73.013075     -12707.934      167.76903      192.17388      61.521405    
     82000  -12782.26       70.177905     -12712.082      167.78929      192.21412      61.543229    
     82100  -12784.659      69.271515     -12715.387      167.83642      192.26793      61.565053    
     82200  -12785.407      69.662577     -12715.745      167.87504      192.31673      61.586877    
     82300  -12784.051      70.521507     -12713.529      167.89685      192.35143      61.608701    
     82400  -12780.972      69.923362     -12711.049      167.92751      192.39459      61.630525    
     82500  -12783.604      74.406476     -12709.198      167.94328      192.42936      61.652348    
     82600  -12783.554      71.08799      -12712.466      167.94626      192.45926      61.674172    
     82700  -12784.375      67.533556     -12716.841      167.96154      192.49756      61.695996    
     82800  -12783.968      67.314616     -12716.653      167.99563      192.542        61.71782     
     82900  -12782.653      69.783526     -12712.869      168.02599      192.5841       61.739644    
     83000  -12780.485      71.522848     -12708.962      168.04342      192.6103       61.761468    
     83100  -12781.333      72.451374     -12708.882      168.0722       192.6468       61.783292    
     83200  -12784.399      71.707982     -12712.691      168.09851      192.67829      61.805115    
     83300  -12786.181      69.850021     -12716.331      168.1061       192.69485      61.826939    
     83400  -12790.993      72.56285      -12718.43       168.12512      192.72465      61.848763    
     83500  -12790.684      70.212845     -12720.471      168.14836      192.75212      61.870587    
     83600  -12787.695      68.143799     -12719.551      168.1602       192.77442      61.892411    
     83700  -12787.783      71.542023     -12716.241      168.18483      192.8085       61.914235    
     83800  -12785.363      71.57036      -12713.793      168.20151      192.82818      61.936058    
     83900  -12787.503      71.823289     -12715.68       168.20959      192.84214      61.957882    
     84000  -12787.737      68.416344     -12719.32       168.23322      192.87812      61.979706    
     84100  -12789.018      67.982234     -12721.036      168.25347      192.90304      62.00153     
     84200  -12788.534      69.763644     -12718.77       168.25675      192.92248      62.023354    
     84300  -12789.431      74.13321      -12715.297      168.25908      192.95156      62.045178    
     84400  -12788.269      74.577139     -12713.691      168.26153      192.98331      62.067001    
     84500  -12787.47       71.678596     -12715.791      168.26379      193.02048      62.088825    
     84600  -12791.382      71.330307     -12720.052      168.26992      193.06401      62.110649    
     84700  -12790.751      68.189052     -12722.562      168.28502      193.10961      62.132473    
     84800  -12791.212      70.565248     -12720.646      168.30073      193.14636      62.154297    
     84900  -12791.013      74.62003      -12716.393      168.31384      193.17292      62.176121    
     85000  -12785.358      71.245664     -12714.112      168.32448      193.19888      62.197944    
     85100  -12786.169      71.044398     -12715.124      168.33253      193.22371      62.219768    
     85200  -12788.255      69.51918      -12718.736      168.34307      193.24482      62.241592    
     85300  -12789.237      67.705356     -12721.531      168.35235      193.26426      62.263416    
     85400  -12792.796      71.274371     -12721.521      168.37563      193.29363      62.28524     
     85500  -12789.75       71.15793      -12718.592      168.38814      193.31248      62.307064    
     85600  -12788.103      73.135205     -12714.967      168.39786      193.32617      62.328888    
     85700  -12786.877      72.387457     -12714.489      168.4122       193.33514      62.350711    
     85800  -12789.348      71.646662     -12717.701      168.42561      193.33326      62.372535    
     85900  -12789.104      68.025915     -12721.078      168.43698      193.34105      62.394359    
     86000  -12791.008      69.894532     -12721.113      168.45412      193.36574      62.416183    
     86100  -12788.289      70.413245     -12717.876      168.47065      193.38679      62.438007    
     86200  -12787.089      72.461829     -12714.627      168.488        193.40536      62.459831    
     86300  -12788.229      73.453408     -12714.775      168.51033      193.42372      62.481654    
     86400  -12790.233      71.733884     -12718.5        168.52466      193.43679      62.503478    
     86500  -12792.294      69.163374     -12723.131      168.53205      193.44718      62.525302    
     86600  -12792.641      68.418059     -12724.223      168.54008      193.46435      62.547126    
     86700  -12790.731      70.079601     -12720.652      168.54829      193.47507      62.56895     
     86800  -12789.287      73.640269     -12715.647      168.54649      193.47782      62.590774    
     86900  -12788.566      74.060345     -12714.506      168.55286      193.48266      62.612597    
     87000  -12788.586      70.854468     -12717.732      168.56248      193.50043      62.634421    
     87100  -12791.87       69.784346     -12722.086      168.56754      193.51513      62.656245    
     87200  -12794.725      70.446875     -12724.278      168.57288      193.52273      62.678069    
     87300  -12790.705      68.252165     -12722.453      168.58371      193.52457      62.699893    
     87400  -12790.502      72.43502      -12718.067      168.60704      193.52713      62.721717    
     87500  -12786.098      71.077085     -12715.021      168.63252      193.52797      62.743541    
     87600  -12788.979      73.173895     -12715.805      168.65545      193.53173      62.765364    
     87700  -12790.302      70.078245     -12720.223      168.67028      193.53772      62.787188    
     87800  -12791.116      67.4469       -12723.669      168.68174      193.53404      62.809012    
     87900  -12791.588      69.106796     -12722.481      168.69313      193.53633      62.830836    
     88000  -12788.256      70.842466     -12717.414      168.70512      193.53675      62.85266     
     88100  -12784.281      71.861514     -12712.42       168.7051       193.54061      62.874484    
     88200  -12784.879      72.872155     -12712.007      168.70218      193.54951      62.896307    
     88300  -12790.077      72.758814     -12717.318      168.69243      193.55566      62.918131    
     88400  -12790.548      67.465606     -12723.082      168.69336      193.56977      62.939955    
     88500  -12791.42       67.770383     -12723.65       168.68876      193.58483      62.961779    
     88600  -12789.988      71.073337     -12718.915      168.68235      193.60064      62.983603    
     88700  -12786.127      73.497323     -12712.63       168.68911      193.62621      63.005427    
     88800  -12784.208      73.352974     -12710.855      168.68159      193.64448      63.02725     
     88900  -12788.823      73.532862     -12715.291      168.65915      193.65845      63.049074    
     89000  -12790.852      69.363383     -12721.488      168.64659      193.68607      63.070898    
     89100  -12789.428      66.039806     -12723.388      168.63699      193.71087      63.092722    
     89200  -12788.703      68.642084     -12720.061      168.63627      193.73371      63.114546    
     89300  -12788.02       73.534123     -12714.486      168.62614      193.74984      63.13637     
     89400  -12787.205      75.32623      -12711.879      168.61569      193.76749      63.158193    
     89500  -12785.32       70.928535     -12714.392      168.6067       193.78438      63.180017    
     89600  -12788.772      68.767409     -12720.005      168.59981      193.80479      63.201841    
     89700  -12791.538      68.216353     -12723.321      168.59296      193.82612      63.223665    
     89800  -12789.834      68.718501     -12721.116      168.58012      193.84343      63.245489    
     89900  -12785.486      69.742637     -12715.743      168.56594      193.86488      63.267313    
     90000  -12786.146      73.590419     -12712.556      168.55686      193.88619      63.289137    
     90100  -12787.791      73.044493     -12714.747      168.54716      193.90347      63.31096     
     90200  -12789.621      69.64862      -12719.972      168.53328      193.91661      63.332784    
     90300  -12789.293      66.834886     -12722.459      168.51325      193.93407      63.354608    
     90400  -12787.439      66.825856     -12720.613      168.49972      193.95091      63.376432    
     90500  -12788.808      73.429296     -12715.379      168.49209      193.96589      63.398256    
     90600  -12784.484      73.053402     -12711.43       168.4817       193.97622      63.42008     
     90700  -12784.991      71.805295     -12713.186      168.47771      193.98979      63.441903    
     90800  -12787.707      68.938973     -12718.768      168.47619      193.998        63.463727    
     90900  -12789.914      66.948589     -12722.965      168.47551      194.0036       63.485551    
     91000  -12789.712      67.763346     -12721.949      168.47373      194.00955      63.507375    
     91100  -12788.186      71.394405     -12716.791      168.47396      194.00857      63.529199    
     91200  -12786.317      73.72048      -12712.596      168.48148      194.01233      63.551023    
     91300  -12786.749      72.812807     -12713.936      168.48554      194.01502      63.572846    
     91400  -12790.144      70.541298     -12719.602      168.47553      194.00793      63.59467     
     91500  -12793.913      70.221837     -12723.691      168.46214      194.00011      63.616494    
     91600  -12792.874      69.710769     -12723.164      168.44829      193.9935       63.638318    
     91700  -12788.101      69.103734     -12718.997      168.43695      193.9861       63.660142    
     91800  -12786.856      71.026698     -12715.829      168.43161      193.99011      63.681966    
     91900  -12788.658      72.884392     -12715.774      168.43018      194.00289      63.703789    
     92000  -12788.864      69.693069     -12719.171      168.42142      194.02398      63.725613    
     92100  -12791.422      68.344568     -12723.078      168.40898      194.03669      63.747437    
     92200  -12792.554      68.681631     -12723.873      168.39325      194.04177      63.769261    
     92300  -12790.931      70.187183     -12720.744      168.38441      194.04761      63.791085    
     92400  -12789.185      72.274334     -12716.91       168.37545      194.0449       63.812909    
     92500  -12789.822      73.20217      -12716.619      168.35799      194.04369      63.834733    
     92600  -12791.873      72.043203     -12719.83       168.34504      194.04939      63.856556    
     92700  -12792.397      69.166224     -12723.231      168.33708      194.05727      63.87838     
     92800  -12791.874      68.559147     -12723.315      168.32776      194.06171      63.900204    
     92900  -12790.138      70.579536     -12719.558      168.31983      194.06557      63.922028    
     93000  -12786.451      71.296968     -12715.154      168.31448      194.0657       63.943852    
     93100  -12786.597      72.500182     -12714.097      168.30814      194.06933      63.965676    
     93200  -12789.132      71.517778     -12717.614      168.30511      194.06778      63.987499    
     93300  -12793.24       70.414041     -12722.826      168.30396      194.06402      64.009323    
     93400  -12790.984      65.974719     -12725.009      168.29716      194.05618      64.031147    
     93500  -12791.7        69.165105     -12722.535      168.29332      194.0506       64.052971    
     93600  -12790.829      72.960138     -12717.869      168.29335      194.05276      64.074795    
     93700  -12788.397      73.096409     -12715.301      168.2876       194.05965      64.096619    
     93800  -12789.642      71.83243      -12717.809      168.28312      194.06738      64.118442    
     93900  -12795.642      70.881712     -12724.76       168.27545      194.07537      64.140266    
     94000  -12797.499      68.397528     -12729.101      168.25798      194.08378      64.16209     
     94100  -12794.746      67.202047     -12727.544      168.23832      194.09027      64.183914    
     94200  -12791.277      69.715862     -12721.561      168.23493      194.10193      64.205738    
     94300  -12791.252      74.80378      -12716.449      168.23374      194.1065       64.227562    
     94400  -12788.517      71.507942     -12717.01       168.23304      194.11174      64.249385    
     94500  -12792.22       70.522918     -12721.697      168.2261       194.11592      64.271209    
     94600  -12792.807      66.881487     -12725.925      168.21518      194.11657      64.293033    
     94700  -12793.477      67.37314      -12726.104      168.20062      194.12451      64.314857    
     94800  -12794.016      72.291407     -12721.724      168.1806       194.12817      64.336681    
     94900  -12790.428      73.582444     -12716.846      168.15902      194.14006      64.358505    
     95000  -12792.14       74.530684     -12717.609      168.13564      194.15265      64.380329    
     95100  -12796.376      71.581439     -12724.795      168.10698      194.15728      64.402152    
     95200  -12797.529      66.855564     -12730.673      168.08492      194.16414      64.423976    
     95300  -12799.027      68.841997     -12730.185      168.07197      194.16934      64.4458      
     95400  -12799.593      72.277497     -12727.315      168.05685      194.17433      64.467624    
     95500  -12798.209      71.59152      -12726.618      168.03714      194.17752      64.489448    
     95600  -12799.375      70.713041     -12728.662      168.0119       194.18548      64.511272    
     95700  -12801.251      69.846871     -12731.404      167.98942      194.20182      64.533095    
     95800  -12800.862      68.640491     -12732.222      167.96137      194.21263      64.554919    
     95900  -12800.552      70.292536     -12730.26       167.93592      194.22141      64.576743    
     96000  -12799.783      72.340541     -12727.442      167.91156      194.23102      64.598567    
     96100  -12798.693      72.152171     -12726.54       167.88336      194.2388       64.620391    
     96200  -12799.963      71.853011     -12728.11       167.86326      194.25415      64.642215    
     96300  -12800.371      69.938871     -12730.433      167.84902      194.27073      64.664038    
     96400  -12801.07       69.749005     -12731.321      167.83079      194.28474      64.685862    
     96500  -12801.593      71.583149     -12730.01       167.81042      194.29898      64.707686    
     96600  -12797.603      69.51397      -12728.089      167.78738      194.30587      64.72951     
     96700  -12800.312      73.578926     -12726.733      167.75945      194.31013      64.751334    
     96800  -12799.187      71.499415     -12727.688      167.73887      194.31201      64.773158    
     96900  -12799.841      69.721932     -12730.119      167.71868      194.31325      64.794981    
     97000  -12800.133      68.77842      -12731.354      167.69206      194.31017      64.816805    
     97100  -12802.128      71.741158     -12730.386      167.67503      194.31059      64.838629    
     97200  -12798.736      70.713465     -12728.023      167.66088      194.30836      64.860453    
     97300  -12797.945      71.345835     -12726.599      167.64416      194.2967       64.882277    
     97400  -12799.332      71.40488      -12727.927      167.63576      194.28761      64.904101    
     97500  -12801.648      70.75826      -12730.89       167.62467      194.27795      64.925925    
     97600  -12801.743      68.572069     -12733.171      167.61278      194.26746      64.947748    
     97700  -12801.785      69.054006     -12732.731      167.60264      194.26344      64.969572    
     97800  -12801.288      71.249344     -12730.039      167.59469      194.26173      64.991396    
     97900  -12800.031      72.473223     -12727.558      167.58645      194.26199      65.01322     
     98000  -12799.808      72.432221     -12727.376      167.56083      194.25229      65.035044    
     98100  -12799.69       70.018549     -12729.671      167.5279       194.24154      65.056868    
     98200  -12801.789      69.926992     -12731.862      167.51112      194.24334      65.078691    
     98300  -12802.374      70.661302     -12731.712      167.49651      194.24746      65.100515    
     98400  -12799.141      69.81395      -12729.327      167.47961      194.24787      65.122339    
     98500  -12798.582      71.534471     -12727.048      167.46635      194.25092      65.144163    
     98600  -12800.349      72.951705     -12727.397      167.45365      194.25512      65.165987    
     98700  -12799.204      69.828373     -12729.376      167.42522      194.24958      65.187811    
     98800  -12801.902      70.603254     -12731.299      167.39501      194.24113      65.209634    
     98900  -12800.378      68.550827     -12731.827      167.36315      194.23937      65.231458    
     99000  -12800.543      70.581951     -12729.961      167.328        194.23696      65.253282    
     99100  -12798.88       71.756867     -12727.123      167.29848      194.24322      65.275106    
     99200  -12798.904      73.070433     -12725.834      167.26728      194.25107      65.29693     
     99300  -12799.711      72.711928     -12726.999      167.24136      194.26605      65.318754    
     99400  -12798.536      68.677899     -12729.858      167.2151       194.28772      65.340577    
     99500  -12800.496      68.864599     -12731.632      167.17658      194.29903      65.362401    
     99600  -12802.41       71.776836     -12730.634      167.12948      194.30404      65.384225    
     99700  -12799.07       71.07003      -12728          167.09642      194.31629      65.406049    
     99800  -12798.793      72.755325     -12726.037      167.05876      194.32504      65.427873    
     99900  -12798.679      71.689294     -12726.99       167.0139       194.32298      65.449697    
    100000  -12799.556      69.741505     -12729.815      166.9822       194.32686      65.471521    
Loop time of 821.888 on 64 procs for 100000 steps with 1824 atoms

Performance: 10.512 ns/day, 2.283 hours/ns, 121.671 timesteps/s, 221.928 katom-step/s
98.4% CPU use with 64 MPI tasks x 1 OpenMP threads

MPI task timing breakdown:
Section |  min time  |  avg time  |  max time  |%varavg| %total
---------------------------------------------------------------
Pair    | 0.065966   | 45.144     | 747.91     |2577.4 |  5.49
Neigh   | 0.0011332  | 0.34823    | 5.4106     | 216.7 |  0.04
Comm    | 0.038058   | 5.1308     | 96.494     | 880.3 |  0.62
Output  | 0.20154    | 0.21928    | 0.27793    |   3.0 |  0.03
Modify  | 18.73      | 768.42     | 818.96     | 697.9 | 93.49
Other   |            | 2.627      |            |       |  0.32

Nlocal:           28.5 ave         534 max           0 min
Histogram: 60 0 0 0 0 0 0 1 2 1
Nghost:        162.812 ave        2112 max           0 min
Histogram: 54 2 4 0 0 0 0 0 1 3
Neighs:              0 ave           0 max           0 min
Histogram: 64 0 0 0 0 0 0 0 0 0

Total # of neighbors = 0
Ave neighs/atom = 0
Neighbor list builds = 443
Dangerous builds = 0
Total wall time: 0:13:42
