LAMMPS (2 Aug 2023 - Update 3)
OMP_NUM_THREADS environment is not set. Defaulting to 1 thread. (src/comm.cpp:98)
  using 1 OpenMP thread(s) per MPI task
Reading data file ...
  orthogonal box = (-100 -100 -2.3312511) to (100 100 38.891558)
  3 by 4 by 1 MPI processor grid
  reading atoms ...
  784 atoms
  read_data CPU = 0.732 seconds
240 atoms in group SR
Deleted 240 atoms, new total = 544
Replication is creating a 1x1x11 = 11 times larger system...
  orthogonal box = (-100 -100 -2.3312511) to (100 100 451.11965)
  2 by 2 by 3 MPI processor grid
  5984 atoms
  replicate CPU = 0.728 seconds
System init for write_data ...
WARNING: Communication cutoff is 0.0. No ghost atoms will be generated. Atoms may get lost. (src/comm_brick.cpp:210)
Reading airebo potential file CH.airebo with DATE: 2011-10-25
Reading airebo potential file CH.airebo with DATE: 2011-10-25
Neighbor list info ...
  update: every = 1 steps, delay = 0 steps, check = yes
  max neighbors/atom: 2000, page size: 100000
  master list distance cutoff = 13.2
  ghost atom cutoff = 13.2
  binsize = 6.6, bins = 31 31 69
  5 neighbor lists, perpetual/occasional/extra = 5 0 0
  (1) pair airebo, perpetual, skip from (4)
      attributes: full, newton on, ghost
      pair build: skip/ghost
      stencil: none
      bin: none
  (2) pair airebo, perpetual, skip from (4)
      attributes: full, newton on, ghost
      pair build: skip/ghost
      stencil: none
      bin: none
  (3) pair lj/cut, perpetual, skip from (5)
      attributes: half, newton on, cut 13
      pair build: skip
      stencil: none
      bin: none
  (4) neighbor class addition, perpetual
      attributes: full, newton on, ghost
      pair build: full/bin/ghost
      stencil: full/ghost/bin/3d
      bin: standard
  (5) neighbor class addition, perpetual
      attributes: half, newton on, cut 13
      pair build: half/bin/atomonly/newton
      stencil: half/bin/3d
      bin: standard
Setting up sd style minimization ...
  Unit style    : metal
  Current step  : 0
Per MPI rank memory allocation (min/avg/max) = 9.404 | 9.851 | 10.17 Mbytes
   Step          Temp          E_pair         E_mol          TotEng         Press     
         0   0             -44190.139      0             -44190.139      30.842369    
         1   0             -44190.625      0             -44190.625      30.157447    
Loop time of 1.302 on 12 procs for 1 steps with 5984 atoms

36.5% CPU use with 12 MPI tasks x 1 OpenMP threads

Minimization stats:
  Stopping criterion = energy tolerance
  Energy initial, next-to-last, final = 
     -44190.1391443024  -44190.1391443024  -44190.6252981971
  Force two-norm initial, final = 11.536952 2.4743395
  Force max component initial, final = 0.14888908 0.031904291
  Final line search alpha, max atom move = 0.67164094 0.021428228
  Iterations, force evaluations = 1 2

MPI task timing breakdown:
Section |  min time  |  avg time  |  max time  |%varavg| %total
---------------------------------------------------------------
Pair    | 0.017747   | 0.028654   | 0.071166   |  10.0 |  2.20
Neigh   | 0          | 0          | 0          |   0.0 |  0.00
Comm    | 0.29305    | 0.3334     | 0.38226    |   5.3 | 25.61
Output  | 0          | 0          | 0          |   0.0 |  0.00
Modify  | 0          | 0          | 0          |   0.0 |  0.00
Other   |            | 0.9399     |            |       | 72.19

Nlocal:        498.667 ave         563 max         434 min
Histogram: 3 0 0 0 2 4 0 0 0 3
Nghost:        1842.67 ave        1914 max        1773 min
Histogram: 2 1 0 0 4 2 0 0 1 2
Neighs:              0 ave           0 max           0 min
Histogram: 12 0 0 0 0 0 0 0 0 0

Total # of neighbors = 0
Ave neighs/atom = 0
Neighbor list builds = 0
Dangerous builds = 0
Setting up Verlet run ...
  Unit style    : metal
  Current step  : 1
  Time step     : 0.001
Per MPI rank memory allocation (min/avg/max) = 10.03 | 10.6 | 10.8 Mbytes
   Step          Temp          E_pair         E_mol          TotEng         Press          Volume    
         1   300           -44190.625      0             -43958.616      43.820059      18138036     
Loop time of 0.0693309 on 12 procs for 0 steps with 5984 atoms

28.8% CPU use with 12 MPI tasks x 1 OpenMP threads

MPI task timing breakdown:
Section |  min time  |  avg time  |  max time  |%varavg| %total
---------------------------------------------------------------
Pair    | 0          | 0          | 0          |   0.0 |  0.00
Neigh   | 0          | 0          | 0          |   0.0 |  0.00
Comm    | 0          | 0          | 0          |   0.0 |  0.00
Output  | 0          | 0          | 0          |   0.0 |  0.00
Modify  | 0          | 0          | 0          |   0.0 |  0.00
Other   |            | 0.06933    |            |       |100.00

Nlocal:        498.667 ave         500 max         496 min
Histogram: 4 0 0 0 0 0 0 0 0 8
Nghost:        1842.67 ave        1852 max        1836 min
Histogram: 4 0 4 0 0 0 0 0 0 4
Neighs:              0 ave           0 max           0 min
Histogram: 12 0 0 0 0 0 0 0 0 0

Total # of neighbors = 0
Ave neighs/atom = 0
Neighbor list builds = 0
Dangerous builds = 0
WARNING: New thermo_style command, previous thermo_modify settings will be lost (src/output.cpp:903)
WARNING: Dump 2 includes no atom IDs and is not sorted by ID. This may complicate post-processing tasks or visualization (src/dump.cpp:221)
Setting up Verlet run ...
  Unit style    : metal
  Current step  : 0
  Time step     : 0.001
Per MPI rank memory allocation (min/avg/max) = 11.53 | 12.1 | 12.3 Mbytes
   Step         PotEng         KinEng         TotEng           Lx             Ly             Lz      
         0  -44190.625      232.00903     -43958.616      200            200            453.4509     
       100  -44059.311      119.0072      -43940.304      200.00455      200.00427      453.67763    
       200  -44054.539      140.1381      -43914.401      200.00189      200.00134      453.90435    
       300  -44036.661      153.23504     -43883.426      199.99515      199.9943       454.13108    
       400  -44022.946      173.31137     -43849.635      200.00142      200.00015      454.3578     
       500  -44005.108      190.91151     -43814.196      199.99394      199.99183      454.58453    
       600  -43988.457      209.27874     -43779.178      199.99261      199.98972      454.81125    
       700  -43967.773      220.05134     -43747.721      199.99676      199.99264      455.03798    
       800  -43959.111      236.22479     -43722.887      199.98717      199.98115      455.26471    
       900  -43950.58       239.91889     -43710.662      199.99118      199.98359      455.49143    
      1000  -43952.72       237.14851     -43715.571      199.98901      199.97933      455.71816    
      1100  -43958.154      230.03055     -43728.124      199.98237      199.97074      455.94488    
      1200  -43962.785      226.2243      -43736.561      199.98672      199.97323      456.17161    
      1300  -43958.945      225.08262     -43733.863      199.9794       199.96391      456.39833    
      1400  -43955.601      233.65572     -43721.945      199.97805      199.96156      456.62506    
      1500  -43946.888      234.2669      -43712.621      199.97729      199.95984      456.85178    
      1600  -43946.54       234.24878     -43712.291      199.96908      199.95099      457.07851    
      1700  -43951.7        232.19324     -43719.507      199.96968      199.95179      457.30523    
      1800  -43954.333      227.99209     -43726.341      199.96277      199.94512      457.53196    
      1900  -43951.941      226.81027     -43725.131      199.95795      199.9407       457.75868    
      2000  -43946.518      230.48529     -43716.033      199.95588      199.93908      457.98541    
      2100  -43938.984      232.43501     -43706.549      199.94791      199.93073      458.21214    
      2200  -43944.17       240.51305     -43703.657      199.94601      199.92845      458.43886    
      2300  -43943.914      234.95591     -43708.958      199.94043      199.92211      458.66559    
      2400  -43944.026      229.19692     -43714.829      199.93507      199.91491      458.89231    
      2500  -43940.755      225.78203     -43714.973      199.93261      199.91079      459.11904    
      2600  -43937.307      230.01971     -43707.287      199.92574      199.9018       459.34576    
      2700  -43935.441      237.3552      -43698.086      199.9225       199.89626      459.57249    
      2800  -43928.969      235.28096     -43693.688      199.91732      199.88893      459.79921    
      2900  -43929.769      234.15891     -43695.61       199.91125      199.88157      460.02594    
      3000  -43930.984      230.71997     -43700.264      199.90619      199.87545      460.25266    
      3100  -43926.606      225.24224     -43701.364      199.89869      199.86743      460.47939    
      3200  -43924.596      228.67245     -43695.924      199.89298      199.86232      460.70612    
      3300  -43922.28       235.27421     -43687.006      199.88401      199.8544       460.93284    
      3400  -43915.773      234.78687     -43680.986      199.8768       199.84827      461.15957    
      3500  -43916.374      236.02532     -43680.349      199.86888      199.84168      461.38629    
      3600  -43917.761      234.25806     -43683.503      199.85882      199.83269      461.61302    
      3700  -43913.805      228.49887     -43685.306      199.85239      199.82648      461.83974    
      3800  -43908.81       227.25612     -43681.554      199.84294      199.81667      462.06647    
      3900  -43903.412      229.70309     -43673.709      199.83466      199.80782      462.29319    
      4000  -43899.481      232.79861     -43666.682      199.82775      199.79899      462.51992    
      4100  -43899.899      235.68634     -43664.212      199.81772      199.7873       462.74664    
      4200  -43897.042      231.12263     -43665.92       199.81114      199.77899      462.97337    
      4300  -43895.166      227.54985     -43667.616      199.80137      199.767        463.2001     
      4400  -43893.626      228.4509      -43665.175      199.79246      199.75576      463.42682    
      4500  -43883.644      225.65799     -43657.986      199.78475      199.74685      463.65355    
      4600  -43883.668      234.76475     -43648.903      199.77313      199.7333       463.88027    
      4700  -43877.313      233.37387     -43643.939      199.76514      199.72384      464.107      
      4800  -43878.361      233.75098     -43644.61       199.75439      199.71222      464.33372    
      4900  -43877.326      230.40529     -43646.921      199.74293      199.69917      464.56045    
      5000  -43874.447      229.01291     -43645.434      199.73449      199.6889       464.78717    
      5100  -43867.486      229.27938     -43638.207      199.72125      199.67396      465.0139     
      5200  -43860.084      231.07001     -43629.014      199.71186      199.66232      465.24062    
      5300  -43854.782      231.97438     -43622.808      199.70075      199.64824      465.46735    
      5400  -43854.3        232.36814     -43621.932      199.68759      199.63256      465.69408    
      5500  -43851.879      228.48326     -43623.396      199.67852      199.62028      465.9208     
      5600  -43851.953      229.505       -43622.448      199.66421      199.60281      466.14753    
      5700  -43844.95       228.20978     -43616.74       199.65274      199.58852      466.37425    
      5800  -43843.524      235.22012     -43608.304      199.64023      199.57338      466.60098    
      5900  -43835.089      234.38838     -43600.7        199.62543      199.5555       466.8277     
      6000  -43832.517      234.39442     -43598.123      199.61286      199.54093      467.05443    
      6100  -43830.177      232.07007     -43598.107      199.59774      199.52325      467.28115    
      6200  -43831.87       234.63953     -43597.231      199.58334      199.50614      467.50788    
      6300  -43821.434      228.36686     -43593.067      199.56873      199.48934      467.7346     
      6400  -43817.575      231.94315     -43585.631      199.55279      199.47102      467.96133    
      6500  -43810.541      233.19673     -43577.344      199.53816      199.45362      468.18806    
      6600  -43804.909      232.26338     -43572.645      199.52177      199.43446      468.41478    
      6700  -43805.41       234.18396     -43571.226      199.50589      199.41586      468.64151    
      6800  -43799.723      229.59793     -43570.125      199.49027      199.39658      468.86823    
      6900  -43795.565      229.18192     -43566.383      199.47312      199.37609      469.09496    
      7000  -43789.921      231.08223     -43558.839      199.45676      199.35643      469.32168    
      7100  -43782.535      232.85988     -43549.675      199.43997      199.33588      469.54841    
      7200  -43780.867      237.52605     -43543.341      199.42211      199.31472      469.77513    
      7300  -43771.595      229.94184     -43541.653      199.40416      199.29395      470.00186    
      7400  -43770.841      229.41319     -43541.428      199.38573      199.27261      470.22858    
      7500  -43766.192      228.05423     -43538.138      199.36631      199.25068      470.45531    
      7600  -43762.886      232.66741     -43530.219      199.347        199.22935      470.68204    
      7700  -43753.042      232.36244     -43520.68       199.32719      199.20716      470.90876    
      7800  -43745.746      232.12397     -43513.622      199.30657      199.18481      471.13549    
      7900  -43743.005      231.80808     -43511.197      199.28608      199.16285      471.36221    
      8000  -43740.452      230.42113     -43510.031      199.26458      199.139        471.58894    
      8100  -43736.224      229.79797     -43506.426      199.24396      199.11591      471.81566    
      8200  -43732.532      233.97078     -43498.561      199.22205      199.09184      472.04239    
      8300  -43719.49       231.19502     -43488.295      199.19991      199.06666      472.26911    
      8400  -43713.306      231.85211     -43481.454      199.17904      199.04258      472.49584    
      8500  -43712.106      233.17602     -43478.93       199.15523      199.01551      472.72256    
      8600  -43708.157      229.63118     -43478.526      199.13253      198.98961      472.94929    
      8700  -43701.091      229.0026      -43472.088      199.10958      198.96338      473.17602    
      8800  -43694.659      231.24982     -43463.409      199.08371      198.93494      473.40274    
      8900  -43690.581      235.62571     -43454.956      199.05994      198.90933      473.62947    
      9000  -43682.301      233.90327     -43448.398      199.03302      198.88097      473.85619    
      9100  -43676.366      231.15402     -43445.212      199.00584      198.85301      474.08292    
      9200  -43674.857      229.04851     -43445.809      198.97905      198.82566      474.30964    
      9300  -43667.685      229.80404     -43437.881      198.9496       198.79601      474.53637    
      9400  -43660.018      232.60647     -43427.411      198.92144      198.7671       474.76309    
      9500  -43652.023      232.99079     -43419.033      198.89231      198.73728      474.98982    
      9600  -43645.416      233.558       -43411.858      198.86237      198.70597      475.21654    
      9700  -43635.439      228.57763     -43406.861      198.83311      198.67459      475.44327    
      9800  -43635.219      228.36653     -43406.852      198.803        198.64177      475.67       
      9900  -43631.94       230.30147     -43401.638      198.77287      198.60837      475.89672    
     10000  -43621.907      231.23676     -43390.67       198.74182      198.57389      476.12345    
     10100  -43613.309      232.26919     -43381.04       198.71097      198.53931      476.35017    
     10200  -43603.169      230.00878     -43373.16       198.67916      198.50395      476.5769     
     10300  -43596.132      230.34186     -43365.791      198.64605      198.46786      476.80362    
     10400  -43590.86       230.94678     -43359.914      198.61253      198.43193      477.03035    
     10500  -43585.848      228.72793     -43357.12       198.57786      198.39476      477.25707    
     10600  -43583.708      232.05873     -43351.649      198.54214      198.35725      477.4838     
     10700  -43572.607      232.11505     -43340.492      198.50599      198.31942      477.71052    
     10800  -43561.316      232.33433     -43328.982      198.46874      198.28045      477.93725    
     10900  -43557.061      234.47505     -43322.586      198.43143      198.24076      478.16398    
     11000  -43549.226      230.5853      -43318.641      198.39299      198.19967      478.3907     
     11100  -43545.97       232.17913     -43313.791      198.35511      198.15821      478.61743    
     11200  -43540.407      233.90287     -43306.504      198.31606      198.11482      478.84415    
     11300  -43530.106      231.6091      -43298.497      198.27705      198.07095      479.07088    
     11400  -43526.812      237.22455     -43289.587      198.2383       198.02652      479.2976     
     11500  -43513.1        232.53415     -43280.566      198.19748      197.97973      479.52433    
     11600  -43504.495      232.98658     -43271.508      198.15803      197.93441      479.75105    
     11700  -43499.295      235.11832     -43264.177      198.11623      197.88688      479.97778    
     11800  -43492.205      231.47827     -43260.726      198.0737       197.83874      480.2045     
     11900  -43488.409      231.83814     -43256.571      198.03152      197.79184      480.43123    
     12000  -43478.76       230.50228     -43248.258      197.98677      197.74262      480.65796    
     12100  -43465.485      231.12659     -43234.359      197.94294      197.69472      480.88468    
     12200  -43458.358      233.74639     -43224.612      197.89781      197.64559      481.11141    
     12300  -43456.327      236.54599     -43219.781      197.85142      197.5962       481.33813    
     12400  -43448.898      233.59277     -43215.305      197.80574      197.54701      481.56486    
     12500  -43440.215      231.49136     -43208.723      197.7583       197.49635      481.79158    
     12600  -43432.379      231.46959     -43200.91       197.7121       197.44654      482.01831    
     12700  -43420.468      233.53627     -43186.931      197.66472      197.39503      482.24503    
     12800  -43410.008      233.94276     -43176.066      197.61826      197.34335      482.47176    
     12900  -43408.03       236.22607     -43171.804      197.57157      197.29146      482.69848    
     13000  -43398.242      230.79795     -43167.444      197.5239       197.23779      482.92521    
     13100  -43394.297      234.48858     -43159.808      197.47836      197.18573      483.15194    
     13200  -43385.372      234.66092     -43150.711      197.43028      197.13142      483.37866    
     13300  -43372.545      235.38002     -43137.165      197.38319      197.07817      483.60539    
     13400  -43361.663      236.79468     -43124.868      197.33598      197.02525      483.83211    
     13500  -43355.192      236.19176     -43119.001      197.28601      196.97043      484.05884    
     13600  -43345.955      231.82919     -43114.125      197.23856      196.91944      484.28556    
     13700  -43336.421      229.41609     -43107.005      197.18751      196.86533      484.51229    
     13800  -43327.983      229.0395      -43098.943      197.13719      196.8132       484.73901    
     13900  -43322.466      232.89845     -43089.568      197.0874       196.7623       484.96574    
     14000  -43313.346      236.00694     -43077.339      197.03436      196.70894      485.19246    
     14100  -43300.279      234.00184     -43066.278      196.98517      196.65899      485.41919    
     14200  -43295.829      234.31389     -43061.515      196.93329      196.60622      485.64592    
     14300  -43288.847      231.74582     -43057.101      196.88259      196.55394      485.87264    
     14400  -43278.732      230.56328     -43048.168      196.83409      196.50283      486.09937    
     14500  -43266.805      229.83904     -43036.966      196.78333      196.44842      486.32609    
     14600  -43256.278      233.55042     -43022.727      196.73635      196.3973       486.55282    
     14700  -43247.503      235.97194     -43011.531      196.68755      196.34322      486.77954    
     14800  -43236.025      231.15266     -43004.872      196.64003      196.29002      487.00627    
     14900  -43228.157      230.53945     -42997.618      196.59346      196.2382       487.23299    
     15000  -43221.656      230.67378     -42990.983      196.54472      196.18423      487.45972    
     15100  -43212.94       228.37524     -42984.565      196.49876      196.13323      487.68644    
     15200  -43207.181      232.9438      -42974.237      196.45068      196.08081      487.91317    
     15300  -43192.71       234.24351     -42958.466      196.40338      196.03056      488.1399     
     15400  -43183.742      235.47525     -42948.267      196.3564       195.98087      488.36662    
     15500  -43175.123      233.66681     -42941.456      196.30762      195.93033      488.59335    
     15600  -43166.156      231.1019      -42935.054      196.26163      195.88332      488.82007    
     15700  -43154.54       228.52824     -42926.012      196.21259      195.83346      489.0468     
     15800  -43146.875      231.55344     -42915.321      196.16678      195.7865       489.27352    
     15900  -43137.124      232.50311     -42904.62       196.1205       195.73899      489.50025    
     16000  -43126.978      233.7987      -42893.18       196.07372      195.6899       489.72697    
     16100  -43120.11       238.045       -42882.065      196.03122      195.64379      489.9537     
     16200  -43103.413      232.65176     -42870.761      195.9862       195.59437      490.18042    
     16300  -43095.481      233.19975     -42862.281      195.94402      195.54677      490.40715    
     16400  -43087.526      230.36385     -42857.162      195.90329      195.49927      490.63388    
     16500  -43075.794      226.86929     -42848.925      195.86083      195.45004      490.8606     
     16600  -43069.27       232.60663     -42836.664      195.82202      195.40462      491.08733    
     16700  -43054.578      234.19914     -42820.378      195.78137      195.35704      491.31405    
     16800  -43046.508      235.92904     -42810.578      195.74194      195.31166      491.54078    
     16900  -43035.415      231.73672     -42803.679      195.70301      195.26804      491.7675     
     17000  -43025.304      229.33897     -42795.965      195.66273      195.2242       491.99423    
     17100  -43016.086      229.0788      -42787.007      195.62486      195.18319      492.22095    
     17200  -43008.196      231.78285     -42776.413      195.5855       195.14217      492.44768    
     17300  -42996.461      234.37618     -42762.085      195.54713      195.10324      492.6744     
     17400  -42986.718      238.06011     -42748.658      195.50948      195.06492      492.90113    
     17500  -42976.718      235.87475     -42740.843      195.47173      195.02705      493.12786    
     17600  -42964.944      229.41882     -42735.525      195.43555      194.9906       493.35458    
     17700  -42956.594      231.15923     -42725.435      195.39967      194.95328      493.58131    
     17800  -42945.164      232.33567     -42712.828      195.36608      194.91714      493.80803    
     17900  -42929.659      229.5418      -42700.117      195.33201      194.88007      494.03476    
     18000  -42919.949      231.15586     -42688.793      195.30054      194.8441       494.26148    
     18100  -42909.54       231.09289     -42678.447      195.26903      194.80813      494.48821    
     18200  -42901.29       232.34024     -42668.949      195.23764      194.77209      494.71493    
     18300  -42892.52       232.26655     -42660.254      195.20859      194.73908      494.94166    
     18400  -42883.768      232.56888     -42651.2        195.17712      194.70401      495.16838    
     18500  -42870.804      230.10915     -42640.695      195.14833      194.67278      495.39511    
     18600  -42858.497      232.7144      -42625.782      195.11798      194.64146      495.62184    
     18700  -42841.591      230.72574     -42610.865      195.08769      194.6113       495.84856    
     18800  -42834.497      234.67963     -42599.817      195.05898      194.58342      496.07529    
     18900  -42825.56       232.39148     -42593.169      195.02787      194.55402      496.30201    
     19000  -42816.396      229.37795     -42587.018      194.99979      194.52836      496.52874    
     19100  -42806.909      232.11601     -42574.793      194.96996      194.50081      496.75546    
     19200  -42791.593      230.56465     -42561.029      194.94225      194.47458      496.98219    
     19300  -42781.057      234.58634     -42546.471      194.91548      194.44848      497.20891    
     19400  -42766.147      232.96406     -42533.183      194.88825      194.42065      497.43564    
     19500  -42754.309      232.04229     -42522.267      194.86476      194.39516      497.66236    
     19600  -42748.94       232.58213     -42516.358      194.83932      194.36643      497.88909    
     19700  -42736.644      228.86404     -42507.78       194.81706      194.34032      498.11582    
     19800  -42726.905      234.09218     -42492.813      194.79427      194.31271      498.34254    
     19900  -42707.892      230.98994     -42476.902      194.77179      194.28538      498.56927    
     20000  -42699.562      235.00459     -42464.557      194.75051      194.2598       498.79599    
     20100  -42683.56       229.87161     -42453.688      194.72711      194.23282      499.02272    
     20200  -42672.402      228.40223     -42444          194.70596      194.20858      499.24944    
     20300  -42667.043      229.93881     -42437.104      194.68245      194.18334      499.47617    
     20400  -42653.828      228.06        -42425.768      194.65957      194.1598       499.70289    
     20500  -42639.745      231.7916      -42407.954      194.63659      194.13731      499.92962    
     20600  -42624.484      230.4963      -42393.988      194.61206      194.11389      500.15634    
     20700  -42614.669      232.09466     -42382.574      194.5898       194.09284      500.38307    
     20800  -42608.42       236.13301     -42372.287      194.56553      194.06991      500.6098     
     20900  -42596.227      230.71283     -42365.514      194.54344      194.04835      500.83652    
     21000  -42586.283      229.90673     -42356.376      194.52182      194.02567      501.06325    
     21100  -42569.611      229.29742     -42340.314      194.50061      194.00256      501.28997    
     21200  -42556.729      231.83992     -42324.889      194.48121      193.98049      501.5167     
     21300  -42545.214      232.76865     -42312.446      194.46153      193.9567       501.74342    
     21400  -42534.943      233.93307     -42301.01       194.44396      193.93419      501.97015    
     21500  -42519.614      229.36829     -42290.245      194.42571      193.91099      502.19687    
     21600  -42511.152      231.69625     -42279.456      194.40792      193.88838      502.4236     
     21700  -42495.715      229.60849     -42266.107      194.39071      193.8666       502.65032    
     21800  -42481.524      232.32392     -42249.2        194.37206      193.84444      502.87705    
     21900  -42471.804      237.27151     -42234.532      194.35432      193.82455      503.10378    
     22000  -42456.905      232.56386     -42224.341      194.33483      193.8041       503.3305     
     22100  -42449.867      230.94634     -42218.92       194.316        193.7852       503.55723    
     22200  -42436.058      229.37442     -42206.683      194.29598      193.76689      503.78395    
     22300  -42422.447      231.534       -42190.913      194.27583      193.74934      504.01068    
     22400  -42406.66       231.54004     -42175.12       194.25629      193.73221      504.2374     
     22500  -42396.868      234.55564     -42162.312      194.2362       193.71495      504.46413    
     22600  -42380.34       227.47588     -42152.864      194.21691      193.69826      504.69085    
     22700  -42374.134      227.09049     -42147.043      194.19769      193.68045      504.91758    
     22800  -42361.998      229.55426     -42132.443      194.17997      193.66287      505.1443     
     22900  -42343.775      228.16359     -42115.612      194.16219      193.64475      505.37103    
     23000  -42332.829      232.55507     -42100.274      194.14525      193.62622      505.59776    
     23100  -42319.691      233.25858     -42086.433      194.12903      193.60713      505.82448    
     23200  -42307.01       233.74743     -42073.262      194.11297      193.58815      506.05121    
     23300  -42295.457      233.17417     -42062.283      194.09667      193.56928      506.27793    
     23400  -42280.897      228.02362     -42052.873      194.08058      193.55078      506.50466    
     23500  -42271.385      230.55143     -42040.834      194.06399      193.53221      506.73138    
     23600  -42255.049      231.81763     -42023.232      194.04716      193.51437      506.95811    
     23700  -42238.364      231.86089     -42006.504      194.02944      193.4972       507.18483    
     23800  -42227.038      232.7218      -41994.316      194.01136      193.4805       507.41156    
     23900  -42212.891      228.64962     -41984.242      193.9931       193.46387      507.63828    
     24000  -42202.504      229.22433     -41973.279      193.9744       193.44749      507.86501    
     24100  -42190.789      227.91698     -41962.872      193.95586      193.43146      508.09174    
     24200  -42180.233      231.45653     -41948.776      193.9366       193.41415      508.31846    
     24300  -42155.609      225.77602     -41929.833      193.91892      193.39741      508.54519    
     24400  -42145.036      231.20145     -41913.834      193.90054      193.3793       508.77191    
     24500  -42134.155      233.4065      -41900.749      193.88226      193.36066      508.99864    
     24600  -42124.998      233.50021     -41891.498      193.86493      193.34163      509.22536    
     24700  -42111.822      229.14182     -41882.681      193.84725      193.32114      509.45209    
     24800  -42099.088      231.30443     -41867.784      193.83093      193.30139      509.67881    
     24900  -42078.222      230.78169     -41847.44       193.8134       193.28031      509.90554    
     25000  -42066.716      232.62548     -41834.091      193.79728      193.25992      510.13226    
     25100  -42058.038      233.95849     -41824.08       193.78067      193.23904      510.35899    
     25200  -42046.712      232.56818     -41814.144      193.76355      193.21831      510.58572    
     25300  -42029.672      228.93447     -41800.737      193.74673      193.19835      510.81244    
     25400  -42014.698      233.51122     -41781.186      193.72912      193.17844      511.03917    
     25500  -41998.626      233.43443     -41765.192      193.71136      193.15918      511.26589    
     25600  -41985.152      231.62016     -41753.532      193.69288      193.14016      511.49262    
     25700  -41975.15       231.61236     -41743.537      193.67435      193.12203      511.71934    
     25800  -41961.1        229.40918     -41731.691      193.65481      193.10332      511.94607    
     25900  -41944.821      230.74949     -41714.072      193.63573      193.08574      512.17279    
     26000  -41929.122      234.73059     -41694.392      193.6163       193.06756      512.39952    
     26100  -41914.582      231.83792     -41682.744      193.59707      193.04925      512.62624    
     26200  -41906.818      233.0052      -41673.813      193.57814      193.03059      512.85297    
     26300  -41894.397      232.36329     -41662.034      193.55923      193.01192      513.07969    
     26400  -41876.231      229.07623     -41647.155      193.54074      192.99279      513.30642    
     26500  -41862.065      234.55396     -41627.511      193.52252      192.97344      513.53315    
     26600  -41844.719      233.88324     -41610.835      193.50475      192.95388      513.75987    
     26700  -41833.228      233.59174     -41599.637      193.48681      192.93407      513.9866     
     26800  -41821.289      231.35441     -41589.935      193.46926      192.9143       514.21332    
     26900  -41807.816      230.31993     -41577.496      193.4509       192.89404      514.44005    
     27000  -41790.782      229.36234     -41561.42       193.43319      192.87472      514.66677    
     27100  -41776.33       235.40233     -41540.927      193.41464      192.85511      514.8935     
     27200  -41759.069      232.51632     -41526.553      193.39527      192.83578      515.12022    
     27300  -41747.657      232.70813     -41514.949      193.37632      192.81753      515.34695    
     27400  -41736.998      233.41742     -41503.58       193.35566      192.79815      515.57367    
     27500  -41720.987      230.00294     -41490.984      193.33583      192.78044      515.8004     
     27600  -41707.606      231.5005      -41476.106      193.31499      192.76218      516.02713    
     27700  -41687.123      230.89121     -41456.232      193.29386      192.74374      516.25385    
     27800  -41670.325      230.52281     -41439.802      193.27364      192.72586      516.48058    
     27900  -41663.835      234.90532     -41428.93       193.25236      192.70639      516.7073     
     28000  -41648.13       229.52592     -41418.605      193.23181      192.68709      516.93403    
     28100  -41633.318      229.44408     -41403.874      193.21144      192.66701      517.16075    
     28200  -41616.468      229.35612     -41387.112      193.19116      192.64568      517.38748    
     28300  -41600.835      229.55809     -41371.277      193.17141      192.6236       517.6142     
     28400  -41587.426      230.92557     -41356.501      193.15174      192.60116      517.84093    
     28500  -41573.45       231.47502     -41341.975      193.13148      192.57745      518.06765    
     28600  -41559.534      231.24922     -41328.284      193.1119       192.55453      518.29438    
     28700  -41547.058      229.88462     -41317.173      193.09164      192.53068      518.52111    
     28800  -41536.263      231.00018     -41305.263      193.07063      192.50654      518.74783    
     28900  -41517.506      229.36832     -41288.138      193.05037      192.48364      518.97456    
     29000  -41501.654      233.72606     -41267.928      193.02847      192.46         519.20128    
     29100  -41490.769      237.76463     -41253.005      193.00711      192.43735      519.42801    
     29200  -41477.163      236.6547      -41240.508      192.98491      192.41478      519.65473    
     29300  -41457.161      227.21665     -41229.944      192.96202      192.39183      519.88146    
     29400  -41447.618      228.34191     -41219.276      192.9398       192.3703       520.10818    
     29500  -41433.798      228.48753     -41205.31       192.91607      192.34706      520.33491    
     29600  -41417.875      234.34838     -41183.527      192.89402      192.32515      520.56163    
     29700  -41394.436      229.37461     -41165.061      192.87095      192.30188      520.78836    
     29800  -41378.491      229.021       -41149.47       192.848        192.27867      521.01509    
     29900  -41365.933      230.8954      -41135.037      192.82609      192.25556      521.24181    
     30000  -41353.003      230.07716     -41122.926      192.80306      192.23075      521.46854    
     30100  -41341.748      230.01215     -41111.736      192.78175      192.20732      521.69526    
     30200  -41330.732      234.92064     -41095.811      192.7591       192.18222      521.92199    
     30300  -41303.057      228.92944     -41074.128      192.73779      192.15834      522.14871    
     30400  -41292.928      234.24799     -41058.68       192.71542      192.1333       522.37544    
     30500  -41278.249      232.96915     -41045.28       192.69316      192.10899      522.60216    
     30600  -41265.47       231.64472     -41033.825      192.67052      192.08513      522.82889    
     30700  -41252.05       229.61174     -41022.438      192.64716      192.06097      523.05561    
     30800  -41239.249      232.82517     -41006.424      192.62348      192.03738      523.28234    
     30900  -41212.969      228.56526     -40984.403      192.59961      192.01481      523.50907    
     31000  -41200.967      233.83918     -40967.128      192.57412      191.99123      523.73579    
     31100  -41185.262      233.32907     -40951.933      192.54963      191.96939      523.96252    
     31200  -41168.255      229.01018     -40939.245      192.52382      191.94637      524.18924    
     31300  -41157.636      229.16487     -40928.471      192.49821      191.924        524.41597    
     31400  -41145.837      231.98272     -40913.855      192.4728       191.90178      524.64269    
     31500  -41123.665      232.06435     -40891.601      192.44665      191.87801      524.86942    
     31600  -41106.341      232.79654     -40873.544      192.4224       191.8552       525.09614    
     31700  -41090.851      232.53799     -40858.313      192.39685      191.83015      525.32287    
     31800  -41076.452      231.07767     -40845.375      192.37258      191.80551      525.54959    
     31900  -41065.524      232.45723     -40833.067      192.3481       191.77952      525.77632    
     32000  -41050.374      231.94281     -40818.431      192.32372      191.75224      526.00305    
     32100  -41030.129      233.15248     -40796.976      192.30027      191.72527      526.22977    
     32200  -41012.759      234.08064     -40778.678      192.27506      191.69651      526.4565     
     32300  -40996.617      232.70755     -40763.909      192.25158      191.66915      526.68322    
     32400  -40984.481      231.29616     -40753.185      192.22565      191.63947      526.90995    
     32500  -40969.664      229.03046     -40740.634      192.20094      191.61182      527.13667    
     32600  -40952.432      228.63093     -40723.801      192.17424      191.58342      527.3634     
     32700  -40934.696      228.01802     -40706.678      192.14777      191.55596      527.59012    
     32800  -40920.383      231.4465      -40688.936      192.12105      191.52852      527.81685    
     32900  -40905.068      233.78553     -40671.282      192.09324      191.50058      528.04357    
     33000  -40887.735      233.00799     -40654.727      192.06621      191.47438      528.2703     
     33100  -40871.413      231.69038     -40639.723      192.03702      191.4466       528.49703    
     33200  -40860.622      233.07414     -40627.548      192.00977      191.42061      528.72375    
     33300  -40846.474      231.89842     -40614.576      191.98093      191.39244      528.95048    
     33400  -40827.173      229.81432     -40597.358      191.95336      191.36535      529.1772     
     33500  -40807.379      231.74837     -40575.63       191.92557      191.33726      529.40393    
     33600  -40794.527      235.92686     -40558.6        191.89794      191.30869      529.63065    
     33700  -40778.181      233.39016     -40544.791      191.87145      191.27992      529.85738    
     33800  -40761.623      229.84235     -40531.781      191.84458      191.25018      530.0841     
     33900  -40748.675      229.76918     -40518.906      191.81823      191.22111      530.31083    
     34000  -40735.101      226.66541     -40508.435      191.79116      191.19138      530.53755    
     34100  -40717.851      227.0897      -40490.761      191.76481      191.16191      530.76428    
     34200  -40700.131      231.21791     -40468.913      191.73798      191.13232      530.99101    
     34300  -40681.578      231.14621     -40450.431      191.71116      191.10338      531.21773    
     34400  -40664.303      232.38268     -40431.92       191.68337      191.07411      531.44446    
     34500  -40646.682      231.93513     -40414.747      191.65596      191.04582      531.67118    
     34600  -40634.865      234.61139     -40400.254      191.62728      191.01717      531.89791    
     34700  -40620.567      231.35818     -40389.209      191.59861      190.98953      532.12463    
     34800  -40604.459      229.43235     -40375.027      191.56933      190.96219      532.35136    
     34900  -40587.335      232.70271     -40354.632      191.53939      190.93456      532.57808    
     35000  -40566.623      231.6724      -40334.951      191.51016      190.90826      532.80481    
     35100  -40552.95       233.6101      -40319.34       191.47925      190.8806       533.03153    
     35200  -40536.788      231.97781     -40304.811      191.44989      190.85433      533.25826    
     35300  -40520.722      230.96146     -40289.76       191.41954      190.82641      533.48499    
     35400  -40500.672      228.50647     -40272.166      191.39048      190.79886      533.71171    
     35500  -40482.211      231.05368     -40251.157      191.36125      190.77033      533.93844    
     35600  -40469.275      235.78286     -40233.492      191.33203      190.74072      534.16516    
     35700  -40450.806      231.6043      -40219.202      191.30384      190.71115      534.39189    
     35800  -40438.157      229.3333      -40208.824      191.27467      190.67964      534.61861    
     35900  -40424.9        230.61948     -40194.281      191.247        190.64879      534.84534    
     36000  -40404.511      230.15162     -40174.359      191.21792      190.61622      535.07206    
     36100  -40386.627      230.37876     -40156.248      191.19007      190.58463      535.29879    
     36200  -40371.274      231.78514     -40139.489      191.16092      190.55176      535.52551    
     36300  -40353.987      231.94301     -40122.044      191.13221      190.51961      535.75224    
     36400  -40338.845      234.53596     -40104.309      191.10298      190.48765      535.97897    
     36500  -40321.421      233.59257     -40087.829      191.073        190.45601      536.20569    
     36600  -40304.549      229.92508     -40074.624      191.04262      190.42484      536.43242    
     36700  -40291.508      229.53161     -40061.977      191.01228      190.39384      536.65914    
     36800  -40275.059      229.45525     -40045.604      190.98175      190.36326      536.88587    
     36900  -40257.943      235.42154     -40022.521      190.95065      190.33245      537.11259    
     37000  -40235.764      231.21211     -40004.552      190.91993      190.3025       537.33932    
     37100  -40224.239      233.73025     -39990.509      190.88845      190.27176      537.56604    
     37200  -40205.744      228.78859     -39976.955      190.85782      190.24143      537.79277    
     37300  -40193.576      230.51012     -39963.066      190.82724      190.21062      538.01949    
     37400  -40177.08       228.36513     -39948.715      190.79657      190.17988      538.24622    
     37500  -40159.442      231.67285     -39927.769      190.76643      190.14919      538.47295    
     37600  -40138.361      231.76391     -39906.597      190.73642      190.11803      538.69967    
     37700  -40119.652      230.18129     -39889.471      190.70676      190.0868       538.9264     
     37800  -40105.902      231.91532     -39873.987      190.67753      190.05573      539.15312    
     37900  -40089.961      227.87868     -39862.082      190.64805      190.02454      539.37985    
     38000  -40076.385      227.62814     -39848.757      190.61896      189.99358      539.60657    
     38100  -40056.839      229.25774     -39827.581      190.58972      189.96201      539.8333     
     38200  -40038.599      230.83887     -39807.76       190.56108      189.93137      540.06002    
     38300  -40022.871      233.0151      -39789.856      190.53145      189.90024      540.28675    
     38400  -40007.037      235.06684     -39771.97       190.5018       189.8699       540.51347    
     38500  -39987.645      233.21092     -39754.434      190.47279      189.84058      540.7402     
     38600  -39971.573      230.99811     -39740.575      190.44162      189.80984      540.96693    
     38700  -39958.209      229.78224     -39728.427      190.41248      189.78207      541.19365    
     38800  -39939.284      228.23426     -39711.05       190.38071      189.75239      541.42038    
     38900  -39921.929      233.44237     -39688.486      190.35088      189.72526      541.6471     
     39000  -39904.436      234.30354     -39670.133      190.31957      189.69684      541.87383    
     39100  -39891.071      236.78637     -39654.284      190.2884       189.66828      542.10055    
     39200  -39870.293      231.83578     -39638.457      190.25892      189.64108      542.32728    
     39300  -39848.607      227.70215     -39620.905      190.22647      189.61063      542.554      
     39400  -39832.906      233.29146     -39599.615      190.19787      189.58345      542.78073    
     39500  -39817          236.50374     -39580.497      190.16563      189.55177      543.00745    
     39600  -39801.394      233.9436      -39567.45       190.13773      189.52321      543.23418    
     39700  -39782.687      227.22972     -39555.457      190.10639      189.49047      543.46091    
     39800  -39768.774      230.90073     -39537.873      190.07827      189.46032      543.68763    
     39900  -39750.746      232.42369     -39518.322      190.04906      189.42819      543.91436    
     40000  -39732.737      233.46216     -39499.275      190.02001      189.39541      544.14108    
     40100  -39715.662      233.8512      -39481.811      189.99272      189.36423      544.36781    
     40200  -39702.502      233.43202     -39469.07       189.96298      189.33072      544.59453    
     40300  -39686.16       230.6871      -39455.473      189.93612      189.30023      544.82126    
     40400  -39665.389      228.68915     -39436.7        189.90605      189.26685      545.04798    
     40500  -39648.112      233.45068     -39414.661      189.87938      189.23714      545.27471    
     40600  -39631.924      235.26429     -39396.659      189.8493       189.20484      545.50143    
     40700  -39613.033      231.68444     -39381.349      189.82114      189.17513      545.72816    
     40800  -39596.822      230.4793      -39366.342      189.7919       189.14539      545.95489    
     40900  -39583.617      234.10083     -39349.516      189.7616       189.11478      546.18161    
     41000  -39563.938      231.80311     -39332.135      189.73377      189.08719      546.40834    
     41100  -39546.226      231.80504     -39314.421      189.70218      189.05669      546.63506    
     41200  -39527.696      231.39797     -39296.298      189.67395      189.03047      546.86179    
     41300  -39513.063      236.33373     -39276.729      189.64268      189.00126      547.08851    
     41400  -39488.402      231.95796     -39256.444      189.61418      188.97451      547.31524    
     41500  -39474.588      233.95511     -39240.633      189.58469      188.94635      547.54196    
     41600  -39461.291      231.58045     -39229.711      189.55583      188.91843      547.76869    
     41700  -39443.729      229.38103     -39214.348      189.52821      188.89162      547.99541    
     41800  -39426.41       231.47946     -39194.931      189.49889      188.8624       548.22214    
     41900  -39409.066      235.85379     -39173.212      189.47302      188.83593      548.44887    
     42000  -39388.671      233.39572     -39155.275      189.44414      188.80609      548.67559    
     42100  -39370.272      230.49627     -39139.776      189.41882      188.77964      548.90232    
     42200  -39356.504      231.91515     -39124.589      189.39086      188.75035      549.12904    
     42300  -39338.902      230.16426     -39108.738      189.36567      188.7234       549.35577    
     42400  -39323.171      232.53636     -39090.635      189.33903      188.69514      549.58249    
     42500  -39306.253      236.79524     -39069.458      189.31329      188.66811      549.80922    
     42600  -39283.199      233.54198     -39049.657      189.28744      188.64107      550.03594    
     42700  -39267.162      232.68151     -39034.48       189.26075      188.61406      550.26267    
     42800  -39251.102      228.21282     -39022.889      189.23534      188.58851      550.48939    
     42900  -39237.925      232.30327     -39005.622      189.20761      188.56083      550.71612    
     43000  -39214.096      229.00284     -38985.093      189.18196      188.53611      550.94285    
     43100  -39197.433      232.01128     -38965.422      189.15361      188.5093       551.16957    
     43200  -39180.19       232.69444     -38947.496      189.12684      188.4844       551.3963     
     43300  -39162.589      231.70623     -38930.883      189.09839      188.45814      551.62302    
     43400  -39147.964      230.96255     -38917.002      189.07109      188.43265      551.84975    
     43500  -39132.737      228.40744     -38904.329      189.04352      188.4064       552.07647    
     43600  -39112.086      227.63991     -38884.446      189.01641      188.38041      552.3032     
     43700  -39096.315      234.26216     -38862.053      188.98969      188.35406      552.52992    
     43800  -39076.755      232.97082     -38843.784      188.96297      188.32704      552.75665    
     43900  -39059.196      232.09013     -38827.105      188.93818      188.30033      552.98337    
     44000  -39042.088      229.78194     -38812.306      188.91263      188.27182      553.2101     
     44100  -39028.779      229.4487      -38799.33       188.88899      188.24467      553.43683    
     44200  -39010.191      228.28815     -38781.903      188.86439      188.21647      553.66355    
     44300  -38991.32       234.1198      -38757.2        188.84124      188.18919      553.89028    
     44400  -38969.152      231.16431     -38737.987      188.81724      188.16079      554.117      
     44500  -38954.321      233.19654     -38721.124      188.79477      188.13375      554.34373    
     44600  -38939.593      232.89399     -38706.699      188.77097      188.10632      554.57045    
     44700  -38923.931      230.57826     -38693.352      188.74717      188.08004      554.79718    
     44800  -38906.251      230.24241     -38676.009      188.72304      188.0546       555.0239     
     44900  -38884.411      234.04001     -38650.371      188.6983       188.02945      555.25063    
     45000  -38864.462      232.50365     -38631.958      188.67393      188.00555      555.47735    
     45100  -38853.813      236.09985     -38617.713      188.64843      187.98158      555.70408    
     45200  -38834.201      231.25098     -38602.95       188.62378      187.95949      555.93081    
     45300  -38812.657      227.29498     -38585.362      188.59773      187.93663      556.15753    
     45400  -38798.42       236.63551     -38561.785      188.57315      187.91532      556.38426    
     45500  -38777.975      236.66289     -38541.312      188.54746      187.8925       556.61098    
     45600  -38761.824      235.10785     -38526.716      188.52346      187.87108      556.83771    
     45700  -38744.688      231.91172     -38512.776      188.49878      187.84851      557.06443    
     45800  -38728.717      233.05        -38495.667      188.47501      187.82651      557.29116    
     45900  -38706.115      228.69343     -38477.422      188.45171      187.80406      557.51788    
     46000  -38687.27       229.66082     -38457.61       188.42913      187.78145      557.74461    
     46100  -38672.3        238.23829     -38434.062      188.40728      187.75871      557.97133    
     46200  -38648.602      234.12876     -38414.473      188.38572      187.73533      558.19806    
     46300  -38634.677      232.27766     -38402.399      188.3654       187.71258      558.42479    
     46400  -38620.179      233.49108     -38386.688      188.34414      187.68866      558.65151    
     46500  -38601.163      231.18893     -38369.974      188.32392      187.66594      558.87824    
     46600  -38582.001      229.74908     -38352.252      188.30258      187.64261      559.10496    
     46700  -38563.162      231.73289     -38331.429      188.28102      187.61966      559.33169    
     46800  -38546.195      237.33709     -38308.858      188.25946      187.59701      559.55841    
     46900  -38528.058      235.4651      -38292.593      188.23712      187.57437      559.78514    
     47000  -38509.002      228.81414     -38280.188      188.21407      187.55201      560.01186    
     47100  -38493.865      231.04377     -38262.822      188.19117      187.53048      560.23859    
     47200  -38475.794      231.23919     -38244.555      188.1675       187.50897      560.46531    
     47300  -38459.484      232.40887     -38227.075      188.14384      187.4877       560.69204    
     47400  -38439.08       229.1511      -38209.929      188.12048      187.46664      560.91877    
     47500  -38424.33       229.97051     -38194.359      188.09693      187.44498      561.14549    
     47600  -38410.531      232.61822     -38177.913      188.07464      187.42399      561.37222    
     47700  -38388.427      230.86909     -38157.558      188.05214      187.40155      561.59894    
     47800  -38366.954      232.68773     -38134.266      188.03113      187.3797       561.82567    
     47900  -38348.366      232.14        -38116.226      188.00957      187.35666      562.05239    
     48000  -38337.387      234.74183     -38102.645      187.98974      187.33445      562.27912    
     48100  -38320.5        234.03269     -38086.468      187.96922      187.31037      562.50584    
     48200  -38298.064      230.70907     -38067.354      187.95046      187.28768      562.73257    
     48300  -38281.087      232.84887     -38048.238      187.93107      187.26399      562.95929    
     48400  -38260.447      230.48266     -38029.964      187.91206      187.24089      563.18602    
     48500  -38242.572      227.56655     -38015.006      187.89295      187.21811      563.41275    
     48600  -38229.421      228.85827     -38000.563      187.87372      187.19573      563.63947    
     48700  -38213.351      231.83282     -37981.518      187.85455      187.17407      563.8662     
     48800  -38191.646      234.95956     -37956.686      187.83464      187.15249      564.09292    
     48900  -38172.089      234.10565     -37937.983      187.81507      187.13282      564.31965    
     49000  -38155.095      232.43009     -37922.665      187.79352      187.11238      564.54637    
     49100  -38139.528      232.64227     -37906.885      187.77335      187.09431      564.7731     
     49200  -38120.413      231.33991     -37889.073      187.75113      187.07495      564.99982    
     49300  -38101.853      231.74877     -37870.104      187.73051      187.05785      565.22655    
     49400  -38084.192      234.86527     -37849.327      187.70793      187.03968      565.45327    
     49500  -38066.462      236.28899     -37830.173      187.6868       187.02307      565.68       
     49600  -38048.349      232.36508     -37815.984      187.66505      187.00562      565.90672    
     49700  -38030.628      229.47962     -37801.149      187.64437      186.98837      566.13345    
     49800  -38013.661      231.35521     -37782.305      187.62416      186.97059      566.36018    
     49900  -37994.031      235.21268     -37758.818      187.60435      186.95228      566.5869     
     50000  -37970.843      233.98716     -37736.856      187.58542      186.9339       566.81363    
     50100  -37955.618      235.75148     -37719.867      187.5663       186.9146       567.04035    
     50200  -37941.232      237.47179     -37703.761      187.54775      186.89515      567.26708    
     50300  -37921.339      233.0249      -37688.314      187.5298       186.87503      567.4938     
     50400  -37904.43       232.71131     -37671.719      187.51191      186.85398      567.72053    
     50500  -37887.018      233.0029      -37654.016      187.49451      186.83316      567.94725    
     50600  -37863.934      227.02946     -37636.905      187.47621      186.81158      568.17398    
     50700  -37848.754      230.75417     -37618          187.45888      186.79094      568.4007     
     50800  -37828.656      232.50961     -37596.146      187.43999      186.769        568.62743    
     50900  -37812.427      236.47959     -37575.947      187.42229      186.74867      568.85416    
     51000  -37795.61       233.73033     -37561.879      187.40303      186.72755      569.08088    
     51100  -37776.36       229.04259     -37547.317      187.38427      186.70781      569.30761    
     51200  -37758.114      229.99217     -37528.122      187.36439      186.6878       569.53433    
     51300  -37741.128      233.88069     -37507.247      187.3449       186.66862      569.76106    
     51400  -37722.073      236.78449     -37485.289      187.3252       186.64989      569.98778    
     51500  -37700.467      235.623       -37464.844      187.30448      186.63074      570.21451    
     51600  -37689.043      236.48586     -37452.557      187.28525      186.6132       570.44123    
     51700  -37668.479      231.13375     -37437.346      187.26437      186.59393      570.66796    
     51800  -37650.947      231.77942     -37419.167      187.24553      186.57619      570.89468    
     51900  -37630.61       231.37791     -37399.232      187.22478      186.55634      571.12141    
     52000  -37614.826      235.56518     -37379.26       187.2068       186.53879      571.34814    
     52100  -37596.846      234.14866     -37362.698      187.18666      186.51887      571.57486    
     52200  -37578.361      230.04081     -37348.32       187.16897      186.50072      571.80159    
     52300  -37561.564      230.82668     -37330.737      187.15072      186.4812       572.02831    
     52400  -37540.747      231.65435     -37309.092      187.13288      186.46176      572.25504    
     52500  -37515.895      232.28131     -37283.613      187.11602      186.44287      572.48176    
     52600  -37499.738      233.73542     -37266.002      187.09812      186.42271      572.70849    
     52700  -37483.073      232.53987     -37250.533      187.08164      186.40397      572.93521    
     52800  -37468.692      234.64987     -37234.042      187.06384      186.3837       573.16194    
     52900  -37451.483      233.46673     -37218.017      187.04763      186.36542      573.38866    
     53000  -37431.611      229.85948     -37201.751      187.0291       186.34574      573.61539    
     53100  -37411.709      228.76699     -37182.942      187.01294      186.32873      573.84212    
     53200  -37394.06       234.40414     -37159.656      186.99382      186.30974      574.06884    
     53300  -37373.111      236.65528     -37136.456      186.97662      186.29333      574.29557    
     53400  -37356.913      236.09188     -37120.821      186.95748      186.27622      574.52229    
     53500  -37340.919      234.56206     -37106.356      186.93878      186.26045      574.74902    
     53600  -37324.69       235.71061     -37088.98       186.91938      186.24463      574.97574    
     53700  -37304.669      234.93021     -37069.738      186.89942      186.22829      575.20247    
     53800  -37279.553      230.35618     -37049.197      186.88028      186.21309      575.42919    
     53900  -37263.411      235.36468     -37028.047      186.85933      186.19597      575.65592    
     54000  -37245.394      234.58267     -37010.811      186.84039      186.18033      575.88264    
     54100  -37225.847      229.21521     -36996.632      186.82011      186.16224      576.10937    
     54200  -37211.354      232.15303     -36979.201      186.80176      186.14515      576.3361     
     54300  -37191.387      231.27853     -36960.109      186.78252      186.12586      576.56282    
     54400  -37168.885      229.78487     -36939.101      186.76469      186.10713      576.78955    
     54500  -37150.329      232.49122     -36917.838      186.74701      186.08757      577.01627    
     54600  -37131.881      230.57922     -36901.301      186.72901      186.06684      577.243      
     54700  -37120.115      233.50581     -36886.609      186.71297      186.04727      577.46972    
     54800  -37098.356      229.40157     -36868.955      186.69527      186.02528      577.69645    
     54900  -37083.298      233.25721     -36850.04       186.67995      186.00537      577.92317    
     55000  -37065.949      234.88798     -36831.061      186.66252      185.98341      578.1499     
     55100  -37046.699      235.33438     -36811.365      186.64682      185.96313      578.37662    
     55200  -37023.399      230.87917     -36792.52       186.62977      185.94208      578.60335    
     55300  -37006.291      230.70518     -36775.586      186.61264      185.92192      578.83008    
     55400  -36990.824      231.71864     -36759.105      186.59533      185.90257      579.0568     
     55500  -36969.925      228.0539      -36741.871      186.57652      185.88319      579.28353    
     55600  -36953.75       228.50498     -36725.245      186.55864      185.86575      579.51025    
     55700  -36934.485      226.45441     -36708.03       186.53835      185.84713      579.73698    
     55800  -36916.065      231.97359     -36684.091      186.51955      185.83093      579.9637     
     55900  -36898.477      238.33301     -36660.144      186.49868      185.81367      580.19043    
     56000  -36874.86       233.07982     -36641.781      186.47878      185.79797      580.41715    
     56100  -36859.514      233.7084      -36625.805      186.45828      185.78188      580.64388    
     56200  -36839.359      231.45297     -36607.906      186.438        185.76576      580.8706     
     56300  -36818.654      229.91889     -36588.735      186.41829      185.74944      581.09733    
     56400  -36802.689      233.0779      -36569.611      186.39851      185.73219      581.32406    
     56500  -36783.819      230.34785     -36553.472      186.38024      185.71556      581.55078    
     56600  -36770.191      230.75534     -36539.436      186.3614       185.69719      581.77751    
     56700  -36747.848      229.78522     -36518.063      186.34438      185.67952      582.00423    
     56800  -36726.828      232.1963      -36494.632      186.32702      185.66059      582.23096    
     56900  -36707.826      235.31622     -36472.51       186.31041      185.64155      582.45768    
     57000  -36689.583      232.41145     -36457.171      186.29454      185.62259      582.68441    
     57100  -36671.246      228.69686     -36442.549      186.27828      185.60316      582.91113    
     57200  -36651.078      230.23371     -36420.844      186.26249      185.58403      583.13786    
     57300  -36633.573      236.41893     -36397.154      186.24538      185.56335      583.36458    
     57400  -36609.756      234.12886     -36375.627      186.22931      185.54456      583.59131    
     57500  -36594.38       233.22901     -36361.15       186.21144      185.52494      583.81804    
     57600  -36575.792      232.19058     -36343.602      186.19321      185.50599      584.04476    
     57700  -36560.32       235.85337     -36324.466      186.17514      185.48755      584.27149    
     57800  -36538.779      231.89052     -36306.888      186.15541      185.46843      584.49821    
     57900  -36519.909      229.56529     -36290.344      186.13648      185.45128      584.72494    
     58000  -36505.844      232.02918     -36273.815      186.115        185.4325       584.95166    
     58100  -36484.525      227.07278     -36257.452      186.09562      185.41618      585.17839    
     58200  -36462.734      226.81983     -36235.914      186.07386      185.39719      585.40511    
     58300  -36439.845      230.96547     -36208.879      186.0546       185.38068      585.63184    
     58400  -36422.486      234.54123     -36187.945      186.03256      185.36093      585.85856    
     58500  -36403.756      231.99896     -36171.757      186.01411      185.34401      586.08529    
     58600  -36385.016      230.91805     -36154.098      185.99359      185.32421      586.31202    
     58700  -36363.166      228.37035     -36134.796      185.97431      185.30519      586.53874    
     58800  -36351.996      236.35975     -36115.637      185.95585      185.28608      586.76547    
     58900  -36331.014      232.28291     -36098.731      185.93644      185.26528      586.99219    
     59000  -36311.777      228.28607     -36083.491      185.91963      185.2462       587.21892    
     59100  -36290.106      227.86541     -36062.24       185.90052      185.22412      587.44564    
     59200  -36270.537      231.12221     -36039.414      185.88392      185.20475      587.67237    
     59300  -36250.004      232.31023     -36017.694      185.86532      185.18313      587.89909    
     59400  -36232.331      230.88819     -36001.443      185.84821      185.16307      588.12582    
     59500  -36216.547      232.12274     -35984.424      185.8305       185.14255      588.35254    
     59600  -36194.907      231.54277     -35963.364      185.81241      185.12222      588.57927    
     59700  -36172.595      230.9466      -35941.648      185.79447      185.10276      588.806      
     59800  -36155.34       233.04751     -35922.293      185.77479      185.08222      589.03272    
     59900  -36136.176      229.42748     -35906.749      185.75719      185.06426      589.25945    
     60000  -36122.015      234.3788      -35887.637      185.73699      185.04451      589.48617    
     60100  -36098.023      231.50568     -35866.517      185.71818      185.02688      589.7129     
     60200  -36076.396      230.89539     -35845.501      185.69776      185.00875      589.93962    
     60300  -36060.802      233.59739     -35827.204      185.67741      184.99131      590.16635    
     60400  -36037.423      227.90456     -35809.518      185.6577       184.97455      590.39307    
     60500  -36018.029      228.88795     -35789.141      185.63655      184.95645      590.6198     
     60600  -35995.961      230.5101      -35765.451      185.61675      184.94024      590.84652    
     60700  -35976.322      237.62596     -35738.696      185.59468      184.9217       591.07325    
     60800  -35959.161      239.22691     -35719.934      185.57513      184.90514      591.29998    
     60900  -35938.997      234.86594     -35704.131      185.55394      184.88616      591.5267     
     61000  -35918.94       233.56081     -35685.38       185.5339       184.8679       591.75343    
     61100  -35901.739      234.84686     -35666.892      185.51396      184.84878      591.98015    
     61200  -35876.859      228.3059      -35648.553      185.4938       184.8283       592.20688    
     61300  -35861.456      233.371       -35628.085      185.47502      184.80826      592.4336     
     61400  -35837.189      229.11916     -35608.07       185.45549      184.78676      592.66033    
     61500  -35823.619      230.19852     -35593.421      185.43681      184.76556      592.88705    
     61600  -35802.672      231.17529     -35571.497      185.41822      184.74344      593.11378    
     61700  -35782.632      235.61118     -35547.02       185.4          184.72121      593.3405     
     61800  -35755.923      233.2263      -35522.697      185.3812       184.69869      593.56723    
     61900  -35739.788      234.29125     -35505.497      185.3631       184.67696      593.79396    
     62000  -35718.87       231.23347     -35487.637      185.34445      184.65426      594.02068    
     62100  -35702.239      235.43096     -35466.808      185.32601      184.63243      594.24741    
     62200  -35677.629      230.95553     -35446.674      185.30621      184.61066      594.47413    
     62300  -35662.493      234.63255     -35427.861      185.28669      184.58958      594.70086    
     62400  -35636.944      228.65405     -35408.29       185.26658      184.56821      594.92758    
     62500  -35614.992      229.02058     -35385.971      185.24626      184.54818      595.15431    
     62600  -35597.166      234.2661      -35362.9        185.22485      184.52814      595.38103    
     62700  -35575.103      233.78257     -35341.321      185.20377      184.50896      595.60776    
     62800  -35551.381      228.55126     -35322.829      185.18189      184.48971      595.83448    
     62900  -35534.627      232.1171      -35302.51       185.15985      184.47104      596.06121    
     63000  -35513.624      233.67431     -35279.95       185.13791      184.45252      596.28794    
     63100  -35491.074      232.0212      -35259.053      185.11571      184.43367      596.51466    
     63200  -35469.46       229.53804     -35239.922      185.09384      184.41471      596.74139    
     63300  -35451.913      232.88838     -35219.025      185.07211      184.39551      596.96811    
     63400  -35429.251      233.28341     -35195.968      185.05096      184.37632      597.19484    
     63500  -35405.703      230.79411     -35174.908      185.03002      184.35669      597.42156    
     63600  -35388.236      232.70168     -35155.534      185.00959      184.33663      597.64829    
     63700  -35365.329      230.7712      -35134.558      184.98991      184.31613      597.87501    
     63800  -35342.259      231.36596     -35110.893      184.97024      184.29532      598.10174    
     63900  -35320.444      232.42838     -35088.015      184.9511       184.27411      598.32846    
     64000  -35301.027      232.85521     -35068.172      184.93242      184.2526       598.55519    
     64100  -35276.977      229.984       -35046.993      184.91372      184.23115      598.78192    
     64200  -35258.266      234.93856     -35023.328      184.89406      184.20871      599.00864    
     64300  -35236.222      235.38217     -35000.84       184.87558      184.18732      599.23537    
     64400  -35213.619      233.62292     -34979.996      184.85525      184.16483      599.46209    
     64500  -35195.867      236.89753     -34958.969      184.83592      184.14376      599.68882    
     64600  -35168.15       233.03148     -34935.118      184.81536      184.12178      599.91554    
     64700  -35146.829      233.85966     -34912.969      184.79438      184.10024      600.14227    
     64800  -35128.801      237.5528      -34891.248      184.77383      184.0799       600.36899    
     64900  -35099.853      231.31122     -34868.542      184.75145      184.05816      600.59572    
     65000  -35081.69       235.62611     -34846.063      184.73067      184.03863      600.82244    
     65100  -35058.119      234.96481     -34823.154      184.70793      184.01769      601.04917    
     65200  -35034.844      233.42312     -34801.42       184.68533      183.99724      601.2759     
     65300  -35013.276      234.92854     -34778.347      184.66376      183.97813      601.50262    
     65400  -34990.105      234.4475      -34755.657      184.64017      183.95709      601.72935    
     65500  -34964.921      231.88176     -34733.04       184.61851      183.93715      601.95607    
     65600  -34943.024      232.46985     -34710.554      184.59618      183.91693      602.1828     
     65700  -34923.504      235.24157     -34688.262      184.5739       183.89625      602.40952    
     65800  -34897.67       232.24982     -34665.42       184.55268      183.87543      602.63625    
     65900  -34876.898      234.79861     -34642.099      184.53143      183.85423      602.86297    
     66000  -34850.681      231.99911     -34618.682      184.51066      183.83325      603.0897     
     66100  -34829.344      233.85906     -34595.485      184.49004      183.81102      603.31642    
     66200  -34803.157      232.01212     -34571.145      184.47016      183.78937      603.54315    
     66300  -34780.886      232.8907      -34547.996      184.4496       183.76711      603.76988    
     66400  -34755.415      231.13442     -34524.281      184.43026      183.74508      603.9966     
     66500  -34735.081      234.28014     -34500.801      184.41048      183.72262      604.22333    
     66600  -34711.148      233.729       -34477.419      184.39096      183.7007       604.45005    
     66700  -34687.278      233.46115     -34453.817      184.3711       183.67847      604.67678    
     66800  -34663.669      233.84734     -34429.822      184.35194      183.65695      604.9035     
     66900  -34638.465      233.10487     -34405.36       184.33214      183.63572      605.13023    
     67000  -34614.568      233.48854     -34381.08       184.31146      183.61425      605.35695    
     67100  -34590.217      232.97087     -34357.247      184.292        183.59404      605.58368    
     67200  -34567.343      235.08798     -34332.255      184.27087      183.57323      605.8104     
     67300  -34542.321      235.07157     -34307.249      184.24987      183.55329      606.03713    
     67400  -34514.272      232.7107      -34281.561      184.22902      183.53365      606.26386    
     67500  -34486.72       230.48565     -34256.235      184.20674      183.51319      606.49058    
     67600  -34467.892      237.42876     -34230.463      184.18561      183.49475      606.71731    
     67700  -34441.858      235.13992     -34206.718      184.16287      183.47421      606.94403    
     67800  -34416.125      233.64885     -34182.476      184.14151      183.45532      607.17076    
     67900  -34390.199      232.49064     -34157.708      184.11947      183.43582      607.39748    
     68000  -34367.507      235.0427      -34132.464      184.09689      183.41525      607.62421    
     68100  -34340.257      233.60184     -34106.655      184.07664      183.39662      607.85093    
     68200  -34315.699      233.9453      -34081.754      184.05365      183.37539      608.07766    
     68300  -34287.515      232.09266     -34055.423      184.03286      183.35571      608.30438    
     68400  -34264.099      233.70301     -34030.396      184.01239      183.33536      608.53111    
     68500  -34236.129      232.20797     -34003.921      183.99051      183.31354      608.75784    
     68600  -34211.298      233.78972     -33977.509      183.97176      183.29437      608.98456    
     68700  -34184.85       233.42912     -33951.421      183.9505       183.27164      609.21129    
     68800  -34162.601      236.48224     -33926.119      183.93127      183.25103      609.43801    
     68900  -34137.427      237.5894      -33899.837      183.91202      183.23032      609.66474    
     69000  -34107.092      234.7515      -33872.341      183.89152      183.20761      609.89146    
     69100  -34083.724      237.75935     -33845.965      183.87406      183.1879       610.11819    
     69200  -34053.656      234.27889     -33819.378      183.85351      183.16537      610.34491    
     69300  -34029.85       235.90888     -33793.942      183.83496      183.14485      610.57164    
     69400  -34001.676      235.06128     -33766.615      183.81606      183.12388      610.79836    
     69500  -33974.262      234.17672     -33740.085      183.7961       183.10223      611.02509    
     69600  -33948.029      234.24959     -33713.779      183.77812      183.08284      611.25182    
     69700  -33918.844      232.98205     -33685.862      183.75814      183.06163      611.47854    
     69800  -33895.216      237.39989     -33657.816      183.73947      183.04229      611.70527    
     69900  -33869.211      238.60141     -33630.61       183.7198       183.02268      611.93199    
     70000  -33840.922      238.08881     -33602.833      183.7001       183.00322      612.15872    
     70100  -33811.217      235.58592     -33575.632      183.68116      182.98522      612.38544    
     70200  -33785.093      237.02175     -33548.071      183.66024      182.96592      612.61217    
     70300  -33759.271      238.56683     -33520.704      183.64118      182.94849      612.83889    
     70400  -33731.59       238.60175     -33492.988      183.62057      182.92987      613.06562    
     70500  -33702.093      238.74796     -33463.345      183.6004       182.91195      613.29234    
     70600  -33670.036      236.01568     -33434.02       183.58079      182.8944       613.51907    
     70700  -33644.267      238.60392     -33405.663      183.56023      182.87565      613.7458     
     70800  -33615.697      239.1434      -33376.553      183.54103      182.8583       613.97252    
     70900  -33585.509      235.31962     -33350.19       183.5204       182.83954      614.19925    
     71000  -33559.473      236.94917     -33322.524      183.50152      182.82171      614.42597    
     71100  -33531.212      237.70822     -33293.504      183.48247      182.8031       614.6527     
     71200  -33499.389      236.88109     -33262.508      183.46303      182.78386      614.87942    
     71300  -33470.738      238.84238     -33231.896      183.44513      182.76548      615.10615    
     71400  -33443.893      241.27386     -33202.619      183.42667      182.74577      615.33287    
     71500  -33413.297      240.19439     -33173.102      183.40861      182.72632      615.5596     
     71600  -33383.998      239.78578     -33144.212      183.39143      182.70739      615.78632    
     71700  -33353.62       237.36238     -33116.257      183.37355      182.68722      616.01305    
     71800  -33327.481      240.63688     -33086.844      183.35699      182.66804      616.23978    
     71900  -33295.429      237.58707     -33057.842      183.33966      182.64835      616.4665     
     72000  -33263.246      236.14389     -33027.102      183.32253      182.62899      616.69323    
     72100  -33237.808      241.17188     -32996.637      183.30588      182.60988      616.91995    
     72200  -33207.007      241.08606     -32965.921      183.28846      182.59067      617.14668    
     72300  -33176.891      241.74315     -32935.148      183.2711       182.57221      617.3734     
     72400  -33146.26       244.55287     -32901.707      183.25416      182.55409      617.60013    
     72500  -33113.851      242.10204     -32871.749      183.23608      182.53539      617.82685    
     72600  -33081.351      240.41595     -32840.935      183.21885      182.51858      618.05358    
     72700  -33057.671      247.32908     -32810.342      183.20066      182.50102      618.2803     
     72800  -33018.479      240.7565      -32777.722      183.1827       182.48374      618.50703    
[...]
     81600  -43843.956      222.10121     -43621.855      182.73635      181.9799       638.45887    
     81700  -43844.68       227.3929      -43617.287      182.75032      181.99223      638.68559    
     81800  -43831.137      227.67818     -43603.459      182.76395      182.00414      638.91232    
     81900  -43800.382      219.02896     -43581.353      182.77696      182.01542      639.13905    
     82000  -43750.366      209.16269     -43541.203      182.78973      182.02659      639.36577    
     82100  -43679.377      197.3907      -43481.987      182.80209      182.03744      639.5925     
     82200  -43591.925      179.09105     -43412.834      182.81419      182.04838      639.81922    
     82300  -43499.448      159.21306     -43340.235      182.826        182.05915      640.04595    
     82400  -43397.068      124.53009     -43272.538      182.83783      182.06969      640.27267    
     82500  -43306.965      89.831912     -43217.133      182.85         182.08014      640.4994     
     82600  -43291.122      127.07284     -43164.049      182.85943      182.08739      640.72612    
     82700  -43337.459      255.73942     -43081.719      182.86529      182.0901       640.95285    
     82800  -43393.9        324.84682     -43069.053      182.88401      182.10241      641.17957    
     82900  -43442.018      246.78417     -43195.234      182.89544      182.10625      641.4063     
     83000  -43476.865      211.33684     -43265.528      182.91616      182.12288      641.63303    
     83100  -43479.073      199.45087     -43279.622      182.92847      182.12626      641.85975    
     83200  -43490.321      244.65484     -43245.666      182.94696      182.13587      642.08648    
     83300  -43497.118      262.34246     -43234.775      182.96355      182.14652      642.3132     
     83400  -43538.913      258.2201      -43280.693      182.97727      182.15642      642.53993    
     83500  -43584.829      231.76957     -43353.059      182.99232      182.17025      642.76665    
     83600  -43606.261      208.47693     -43397.784      183.01158      182.18789      642.99338    
     83700  -43607.228      209.20196     -43398.026      183.02091      182.20268      643.2201     
     83800  -43607.68       242.1672      -43365.512      183.02572      182.21633      643.44683    
     83900  -43616.662      261.22966     -43355.433      183.02963      182.23558      643.67355    
     84000  -43626.496      234.39191     -43392.105      183.03114      182.25294      643.90028    
     84100  -43643.011      220.78585     -43422.225      183.03756      182.26997      644.12701    
     84200  -43652.256      220.94833     -43431.308      183.04302      182.27939      644.35373    
     84300  -43653.818      231.5098      -43422.309      183.05349      182.28604      644.58046    
     84400  -43657.532      245.3842      -43412.148      183.06671      182.28797      644.80718    
     84500  -43666.652      239.84004     -43426.812      183.08369      182.28761      645.03391    
     84600  -43670.794      219.67706     -43451.117      183.10553      182.28752      645.26063    
     84700  -43663.702      211.47242     -43452.23       183.12688      182.28553      645.48736    
     84800  -43648.941      227.45264     -43421.488      183.14502      182.28561      645.71408    
     84900  -43630.789      245.23088     -43385.559      183.16062      182.28994      645.94081    
     85000  -43605.834      233.03765     -43372.797      183.17235      182.29702      646.16753    
     85100  -43600.449      232.29439     -43368.155      183.17932      182.3083       646.39426    
     85200  -43593.368      230.50949     -43362.858      183.1852       182.32418      646.62099    
     85300  -43591.765      237.7421      -43354.023      183.18732      182.34239      646.84771    
     85400  -43597.314      242.99553     -43354.319      183.18771      182.36273      647.07444    
     85500  -43612.441      237.60349     -43374.837      183.19043      182.38619      647.30116    
     85600  -43634.562      233.49405     -43401.068      183.19079      182.40263      647.52789    
     85700  -43649.417      226.53346     -43422.884      183.19736      182.42112      647.75461    
     85800  -43658.781      225.07773     -43433.704      183.20539      182.43359      647.98134    
     85900  -43664.929      230.62958     -43434.3        183.21547      182.43903      648.20806    
     86000  -43663.643      231.16046     -43432.482      183.23334      182.44508      648.43479    
     86100  -43669.924      235.8294      -43434.095      183.25063      182.44665      648.66151    
     86200  -43666.772      225.5246      -43441.248      183.26753      182.44886      648.88824    
     86300  -43665.754      224.11815     -43441.636      183.28564      182.45571      649.11497    
     86400  -43650.407      222.8255      -43427.582      183.30004      182.46335      649.34169    
     86500  -43639.11       238.36137     -43400.749      183.31135      182.47369      649.56842    
     86600  -43621.419      238.17094     -43383.248      183.31791      182.48794      649.79514    
     86700  -43605.408      227.32563     -43378.083      183.32325      182.5023       650.02187    
     86800  -43587.662      222.34368     -43365.318      183.32403      182.51632      650.24859    
     86900  -43572.963      233.73317     -43339.229      183.32541      182.52968      650.47532    
     87000  -43565.521      246.25659     -43319.264      183.33295      182.54673      650.70204    
     87100  -43581.504      248.97581     -43332.529      183.33612      182.55516      650.92877    
     87200  -43595.657      227.96281     -43367.694      183.34321      182.56689      651.15549    
     87300  -43618.327      224.55763     -43393.769      183.3537       182.57986      651.38222    
     87400  -43630.349      227.15842     -43403.191      183.35989      182.5862       651.60895    
     87500  -43640.809      237.0422      -43403.767      183.37234      182.59137      651.83567    
     87600  -43647.483      237.32534     -43410.158      183.38696      182.59654      652.0624     
     87700  -43668.603      238.06252     -43430.541      183.39983      182.59809      652.28912    
     87800  -43679.878      224.46555     -43455.413      183.41505      182.60435      652.51585    
     87900  -43681.383      217.98159     -43463.401      183.42797      182.6113       652.74257    
     88000  -43678.131      228.61598     -43449.515      183.4382       182.61973      652.9693     
     88100  -43661.112      236.15006     -43424.962      183.44708      182.62878      653.19602    
     88200  -43639.272      235.34279     -43403.929      183.45396      182.63692      653.42275    
     88300  -43627.982      235.07855     -43392.903      183.46187      182.64367      653.64947    
     88400  -43618.033      230.31658     -43387.717      183.47195      182.64876      653.8762     
     88500  -43614.19       234.09238     -43380.098      183.48275      182.65417      654.10293    
     88600  -43611.462      237.00594     -43374.456      183.49044      182.65945      654.32965    
     88700  -43607.009      233.03407     -43373.975      183.4969       182.66689      654.55638    
     88800  -43610.739      235.16902     -43375.57       183.49831      182.67525      654.7831     
     88900  -43623.454      241.16873     -43382.285      183.49751      182.68479      655.00983    
     89000  -43633.374      233.65064     -43399.724      183.49729      182.69682      655.23655    
     89100  -43648.127      227.20282     -43420.924      183.49817      182.70751      655.46328    
     89200  -43658.83       225.63867     -43433.192      183.50048      182.71902      655.69       
     89300  -43664.43       230.06617     -43434.364      183.50275      182.72885      655.91673    
     89400  -43671.43       237.11094     -43434.319      183.50855      182.73778      656.14345    
     89500  -43678.853      235.4752      -43443.378      183.51589      182.74378      656.37018    
     89600  -43686.315      226.99519     -43459.32       183.52715      182.74559      656.59691    
     89700  -43689.158      224.85084     -43464.307      183.54241      182.74611      656.82363    
     89800  -43682.43       228.62064     -43453.81       183.55878      182.74564      657.05036    
     89900  -43668.849      233.70709     -43435.142      183.5738       182.74726      657.27708    
     90000  -43652.106      232.69324     -43419.413      183.58671      182.75058      657.50381    
     90100  -43638.042      233.14056     -43404.902      183.5943       182.75799      657.73053    
     90200  -43625.478      234.96467     -43390.513      183.59822      182.76946      657.95726    
     90300  -43610.04       231.37174     -43378.669      183.59999      182.78607      658.18398    
     90400  -43608.244      237.24086     -43371.003      183.59966      182.80461      658.41071    
     90500  -43607.617      235.97573     -43371.641      183.60014      182.82461      658.63743    
     90600  -43612.858      233.00889     -43379.849      183.60199      182.84378      658.86416    
     90700  -43624.68       230.12076     -43394.559      183.60379      182.85833      659.09089    
     90800  -43637.258      225.62993     -43411.628      183.60857      182.86954      659.31761    
     90900  -43648.992      228.5497      -43420.442      183.61533      182.87556      659.54434    
     91000  -43655.427      234.99342     -43420.433      183.62499      182.87979      659.77106    
     91100  -43661.674      235.83105     -43425.843      183.63823      182.88196      659.99779    
     91200  -43672.403      231.40614     -43440.996      183.652        182.88127      660.22451    
     91300  -43674.952      223.19196     -43451.76       183.66435      182.88095      660.45124    
     91400  -43667.316      221.77994     -43445.536      183.67582      182.88184      660.67796    
     91500  -43654.781      231.21786     -43423.563      183.68539      182.88575      660.90469    
     91600  -43639.492      240.4071      -43399.085      183.69395      182.89084      661.13141    
     91700  -43630.619      240.31338     -43390.306      183.69874      182.89734      661.35814    
     91800  -43623.328      230.30999     -43393.018      183.70093      182.90582      661.58487    
     91900  -43614.045      224.08739     -43389.957      183.69863      182.91459      661.81159    
     92000  -43599.384      229.42178     -43369.962      183.69766      182.92441      662.03832    
     92100  -43600.425      247.96504     -43352.459      183.69329      182.93151      662.26504    
     92200  -43611.16       246.79651     -43364.363      183.69067      182.93726      662.49177    
     92300  -43628.038      230.44087     -43397.597      183.69056      182.94124      662.71849    
     92400  -43639.788      219.87646     -43419.912      183.69104      182.93921      662.94522    
     92500  -43646.73       224.34393     -43422.386      183.69658      182.93843      663.17194    
     92600  -43655.103      240.32708     -43414.775      183.70021      182.93561      663.39867    
     92700  -43659.643      241.68203     -43417.961      183.70387      182.93051      663.62539    
     92800  -43674.243      235.1083      -43439.135      183.7089       182.92785      663.85212    
     92900  -43682.86       220.29891     -43462.561      183.71036      182.9245       664.07885    
     93000  -43687.544      218.73999     -43468.804      183.71243      182.92275      664.30557    
     93100  -43682.341      227.50459     -43454.837      183.71567      182.92453      664.5323     
     93200  -43670.876      237.29689     -43433.579      183.71593      182.92589      664.75902    
     93300  -43661.931      242.9824      -43418.948      183.71879      182.92917      664.98575    
     93400  -43650.467      232.67522     -43417.792      183.72287      182.93383      665.21247    
     93500  -43639.967      221.98841     -43417.978      183.72384      182.93816      665.4392     
     93600  -43633.376      228.70121     -43404.675      183.72615      182.94551      665.66592    
     93700  -43622.516      238.51562     -43384          183.72913      182.95389      665.89265    
     93800  -43614.233      241.29522     -43372.938      183.7308       182.96223      666.11937    
     93900  -43616.406      237.85676     -43378.549      183.73322      182.97141      666.3461     
     94000  -43631.073      233.40405     -43397.669      183.73532      182.98016      666.57283    
     94100  -43644.173      227.28821     -43416.885      183.7408       182.9894       666.79955    
     94200  -43651.298      226.23219     -43425.065      183.74644      182.99798      667.02628    
     94300  -43655.753      232.20562     -43423.548      183.75394      183.00602      667.253      
     94400  -43657.817      236.76012     -43421.057      183.76444      183.01324      667.47973    
     94500  -43659.06       234.69832     -43424.362      183.77499      183.01901      667.70645    
     94600  -43662.366      230.20874     -43432.157      183.78623      183.02468      667.93318    
     94700  -43660.89       224.73781     -43436.152      183.79734      183.03072      668.1599     
     94800  -43647.919      221.29889     -43426.62       183.80794      183.0347       668.38663    
     94900  -43640.01       235.12769     -43404.883      183.8182       183.03966      668.61335    
     95000  -43621.449      236.78743     -43384.661      183.82404      183.04248      668.84008    
     95100  -43613.142      240.13785     -43373.004      183.82744      183.04703      669.06681    
     95200  -43605.625      233.41928     -43372.206      183.8276       183.05142      669.29353    
     95300  -43612.166      234.78696     -43377.379      183.82108      183.05597      669.52026    
     95400  -43613.534      231.34134     -43382.192      183.81298      183.06259      669.74698    
     95500  -43615.595      232.78582     -43382.809      183.80294      183.0648       669.97371    
     95600  -43617.078      233.58        -43383.498      183.79306      183.06539      670.20043    
     95700  -43627.875      239.12652     -43388.748      183.78543      183.06188      670.42716    
     95800  -43643.417      237.11316     -43406.303      183.77956      183.05403      670.65388    
     95900  -43659.148      228.71161     -43430.436      183.77563      183.04442      670.88061    
     96000  -43672.297      224.01224     -43448.285      183.77089      183.03205      671.10733    
     96100  -43675.51       223.40894     -43452.101      183.7669       183.01844      671.33406    
     96200  -43677.375      232.69604     -43444.679      183.76296      183.00551      671.56079    
     96300  -43672.743      234.86664     -43437.876      183.75959      182.99236      671.78751    
     96400  -43673.88       234.2665      -43439.613      183.75668      182.98141      672.01424    
     96500  -43673.707      229.98227     -43443.724      183.75236      182.97333      672.24096    
     96600  -43666.041      226.01399     -43440.027      183.74827      182.96799      672.46769    
     96700  -43654.506      228.48004     -43426.026      183.74311      182.96488      672.69441    
     96800  -43639.5        232.64888     -43406.851      183.73698      182.96566      672.92114    
     96900  -43631.9        239.34536     -43392.555      183.72977      182.97023      673.14786    
     97000  -43628.156      234.72407     -43393.432      183.72188      182.9768       673.37459    
     97100  -43637.652      232.16431     -43405.487      183.71469      182.98582      673.60131    
     97200  -43644.318      228.31339     -43416.004      183.71045      182.99479      673.82804    
     97300  -43645.166      226.80518     -43418.361      183.70935      183.00175      674.05476    
     97400  -43647.464      233.06459     -43414.399      183.71372      183.00777      674.28149    
     97500  -43650.033      236.18501     -43413.848      183.72138      183.01173      674.50822    
     97600  -43658.268      234.60123     -43423.667      183.73089      183.01514      674.73494    
     97700  -43659.573      223.31782     -43436.255      183.74359      183.01906      674.96167    
     97800  -43661.92       223.26001     -43438.66       183.75368      183.02218      675.18839    
     97900  -43654.803      227.81955     -43426.983      183.76452      183.02684      675.41512    
     98000  -43640.748      233.80424     -43406.944      183.77357      183.03231      675.64184    
     98100  -43629.425      238.68646     -43390.738      183.77943      183.03696      675.86857    
     98200  -43619.688      233.87977     -43385.808      183.78278      183.04363      676.09529    
     98300  -43622.795      234.55135     -43388.244      183.78103      183.04914      676.32202    
     98400  -43619.138      230.80142     -43388.336      183.77619      183.05394      676.54874    
     98500  -43610.022      229.07557     -43380.947      183.76772      183.05777      676.77547    
     98600  -43607.402      237.45893     -43369.944      183.75419      183.057        677.0022     
     98700  -43606.071      240.06603     -43366.005      183.7401       183.05471      677.22892    
     98800  -43615.573      235.95939     -43379.613      183.72405      183.04767      677.45565    
     98900  -43630.224      227.92815     -43402.296      183.70637      183.03518      677.68237    
     99000  -43645.364      226.34454     -43419.02       183.69125      183.02124      677.9091     
     99100  -43651.499      227.48737     -43424.012      183.67583      183.00143      678.13582    
     99200  -43652.047      230.98584     -43421.061      183.662        182.97831      678.36255    
     99300  -43659.874      239.51338     -43420.361      183.6484       182.95272      678.58927    
     99400  -43662.724      231.71206     -43431.012      183.634        182.92433      678.816      
     99500  -43667.714      224.96671     -43442.748      183.6193       182.89527      679.04272    
     99600  -43670.777      227.26905     -43443.508      183.60313      182.86714      679.26945    
     99700  -43663.531      230.93582     -43432.595      183.58527      182.84156      679.49618    
     99800  -43648.562      232.16686     -43416.396      183.56543      182.81917      679.7229     
     99900  -43645.156      236.73839     -43408.418      183.54406      182.80033      679.94963    
    100000  -43646.712      232.82678     -43413.885      183.52101      182.78506      680.17635    
Loop time of 54811.3 on 12 procs for 100000 steps with 5984 atoms

Performance: 0.158 ns/day, 152.254 hours/ns, 1.824 timesteps/s, 10.917 katom-step/s
40.3% CPU use with 12 MPI tasks x 1 OpenMP threads

MPI task timing breakdown:
Section |  min time  |  avg time  |  max time  |%varavg| %total
---------------------------------------------------------------
Pair    | 1092.2     | 1249.9     | 1522.2     | 330.6 |  2.28
Neigh   | 3.6873     | 4.6015     | 6.0648     |  28.1 |  0.01
Comm    | 8367.4     | 8887.9     | 9473.6     | 414.9 | 16.22
Output  | 166.04     | 171.43     | 176.42     |  25.7 |  0.31
Modify  | 38938      | 39577      | 40155      | 180.2 | 72.21
Other   |            | 4920       |            |       |  8.98

Nlocal:        498.667 ave         577 max         367 min
Histogram: 1 3 0 0 0 0 0 1 4 3
Nghost:        1615.67 ave        1897 max        1151 min
Histogram: 4 0 0 0 0 0 0 0 4 4
Neighs:              0 ave           0 max           0 min
Histogram: 12 0 0 0 0 0 0 0 0 0

Total # of neighbors = 0
Ave neighs/atom = 0
Neighbor list builds = 576
Dangerous builds = 0
Total wall time: 15:13:46
