LAMMPS (2 Aug 2023 - Update 3)
OMP_NUM_THREADS environment is not set. Defaulting to 1 thread. (src/comm.cpp:98)
  using 1 OpenMP thread(s) per MPI task
Reading data file ...
  orthogonal box = (-100 -100 -2.3312515) to (100 100 46.166171)
  3 by 4 by 1 MPI processor grid
  reading atoms ...
  1320 atoms
  read_data CPU = 0.652 seconds
360 atoms in group sr
Deleted 360 atoms, new total = 960
Replication is creating a 1x1x11 = 11 times larger system...
  orthogonal box = (-100 -100 -2.3312515) to (100 100 531.1404)
  2 by 2 by 3 MPI processor grid
  10560 atoms
  replicate CPU = 0.572 seconds
System init for write_data ...
WARNING: Communication cutoff is 0.0. No ghost atoms will be generated. Atoms may get lost. (src/comm_brick.cpp:210)
Reading airebo potential file CH.airebo with DATE: 2011-10-25
Reading airebo potential file CH.airebo with DATE: 2011-10-25
Reading airebo potential file CH.airebo with DATE: 2011-10-25
Neighbor list info ...
  update: every = 1 steps, delay = 0 steps, check = yes
  max neighbors/atom: 2000, page size: 100000
  master list distance cutoff = 13.2
  ghost atom cutoff = 13.2
  binsize = 6.6, bins = 31 31 81
  6 neighbor lists, perpetual/occasional/extra = 6 0 0
  (1) pair airebo, perpetual, skip from (5)
      attributes: full, newton on, ghost
      pair build: skip/ghost
      stencil: none
      bin: none
  (2) pair airebo, perpetual, skip from (5)
      attributes: full, newton on, ghost
      pair build: skip/ghost
      stencil: none
      bin: none
  (3) pair airebo, perpetual, skip from (5)
      attributes: full, newton on, ghost
      pair build: skip/ghost
      stencil: none
      bin: none
  (4) pair lj/cut, perpetual, skip from (6)
      attributes: half, newton on, cut 13
      pair build: skip
      stencil: none
      bin: none
  (5) neighbor class addition, perpetual
      attributes: full, newton on, ghost
      pair build: full/bin/ghost
      stencil: full/ghost/bin/3d
      bin: standard
  (6) neighbor class addition, perpetual
      attributes: half, newton on, cut 13
      pair build: half/bin/atomonly/newton
      stencil: half/bin/3d
      bin: standard
Setting up sd style minimization ...
  Unit style    : metal
  Current step  : 0
Per MPI rank memory allocation (min/avg/max) = 12.17 | 12.55 | 12.94 Mbytes
   Step          Temp          E_pair         E_mol          TotEng         Press     
         0   0             -78225.137      0             -78225.137     -25.745857    
         1   0             -78225.331      0             -78225.331     -25.739335    
Loop time of 1.26166 on 12 procs for 1 steps with 10560 atoms

38.8% CPU use with 12 MPI tasks x 1 OpenMP threads

Minimization stats:
  Stopping criterion = energy tolerance
  Energy initial, next-to-last, final = 
     -78225.1374083187  -78225.1374083187   -78225.331267834
  Force two-norm initial, final = 7.1836584 0.72373936
  Force max component initial, final = 0.069876905 0.0070494245
  Final line search alpha, max atom move = 1 0.0070494245
  Iterations, force evaluations = 1 2

MPI task timing breakdown:
Section |  min time  |  avg time  |  max time  |%varavg| %total
---------------------------------------------------------------
Pair    | 0.031651   | 0.048703   | 0.073308   |   6.6 |  3.86
Neigh   | 0          | 0          | 0          |   0.0 |  0.00
Comm    | 0.25749    | 0.31002    | 0.37413    |   6.0 | 24.57
Output  | 0          | 0          | 0          |   0.0 |  0.00
Modify  | 0          | 0          | 0          |   0.0 |  0.00
Other   |            | 0.9029     |            |       | 71.57

Nlocal:            880 ave         956 max         803 min
Histogram: 3 0 0 0 2 4 0 0 0 3
Nghost:           3160 ave        3247 max        3076 min
Histogram: 2 1 0 0 4 2 0 0 2 1
Neighs:              0 ave           0 max           0 min
Histogram: 12 0 0 0 0 0 0 0 0 0

Total # of neighbors = 0
Ave neighs/atom = 0
Neighbor list builds = 0
Dangerous builds = 0
Setting up Verlet run ...
  Unit style    : metal
  Current step  : 1
  Time step     : 0.001
Per MPI rank memory allocation (min/avg/max) = 13.18 | 13.37 | 13.56 Mbytes
   Step          Temp          E_pair         E_mol          TotEng         Press          Volume    
         1   300           -78225.331      0             -77815.874     -5.243933       21338866     
Loop time of 0.079316 on 12 procs for 0 steps with 10560 atoms

37.0% CPU use with 12 MPI tasks x 1 OpenMP threads

MPI task timing breakdown:
Section |  min time  |  avg time  |  max time  |%varavg| %total
---------------------------------------------------------------
Pair    | 0          | 0          | 0          |   0.0 |  0.00
Neigh   | 0          | 0          | 0          |   0.0 |  0.00
Comm    | 0          | 0          | 0          |   0.0 |  0.00
Output  | 0          | 0          | 0          |   0.0 |  0.00
Modify  | 0          | 0          | 0          |   0.0 |  0.00
Other   |            | 0.07932    |            |       |100.00

Nlocal:            880 ave         882 max         876 min
Histogram: 4 0 0 0 0 0 0 0 0 8
Nghost:           3160 ave        3174 max        3150 min
Histogram: 4 0 4 0 0 0 0 0 0 4
Neighs:              0 ave           0 max           0 min
Histogram: 12 0 0 0 0 0 0 0 0 0

Total # of neighbors = 0
Ave neighs/atom = 0
Neighbor list builds = 0
Dangerous builds = 0
WARNING: Dump 2 includes no atom IDs and is not sorted by ID. This may complicate post-processing tasks or visualization (src/dump.cpp:221)
Setting up Verlet run ...
  Unit style    : metal
  Current step  : 0
  Time step     : 0.001
Per MPI rank memory allocation (min/avg/max) = 14.68 | 14.87 | 15.06 Mbytes
   Step         PotEng         KinEng         TotEng           Lx             Ly             Lz      
         0  -78225.331      409.45736     -77815.874      200            200            533.47165    
       100  -77986.359      200.27221     -77786.087      199.99848      199.9989       533.73839    
       200  -77999.923      254.91525     -77745.008      199.99675      199.99742      534.00512    
       300  -77952.703      256.82188     -77695.881      199.99803      199.99874      534.27186    
       400  -77935.26       293.27982     -77641.98       199.995        199.99537      534.5386     
       500  -77894.823      309.68344     -77585.14       199.99717      199.99708      534.80533    
       600  -77881.395      353.77277     -77527.622      199.99461      199.9941       535.07207    
       700  -77847.905      374.79451     -77473.111      199.99592      199.9949       535.3388     
       800  -77825.29       400.02294     -77425.267      199.99247      199.99035      535.60554    
       900  -77803.582      413.57719     -77390.005      199.99263      199.98953      535.87228    
      1000  -77798.858      424.01992     -77374.838      199.9929       199.98799      536.13901    
      1100  -77800.48       413.04673     -77387.433      199.99033      199.98413      536.40575    
      1200  -77815.297      406.54445     -77408.753      199.99123      199.98338      536.67248    
      1300  -77820.734      401.66749     -77419.067      199.98978      199.97964      536.93922    
      1400  -77810.478      399.32056     -77411.157      199.98843      199.97619      537.20595    
      1500  -77800.056      408.81761     -77391.238      199.98744      199.97274      537.47269    
      1600  -77791.917      417.0552      -77374.861      199.98553      199.96827      537.73943    
      1700  -77795.755      421.0069      -77374.748      199.98635      199.96614      538.00616    
      1800  -77794.968      407.39171     -77387.577      199.98291      199.9594       538.2729     
      1900  -77801.479      403.03307     -77398.445      199.98367      199.95697      538.53963    
      2000  -77799.648      402.75837     -77396.89       199.98104      199.95081      538.80637    
      2100  -77793.279      410.8544      -77382.425      199.97807      199.94479      539.07311    
      2200  -77777.295      412.80569     -77364.489      199.97738      199.94108      539.33984    
      2300  -77775.265      418.68395     -77356.581      199.97347      199.93458      539.60658    
      2400  -77773.807      411.35199     -77362.455      199.97215      199.93104      539.87331    
      2500  -77780.698      407.79461     -77372.903      199.96794      199.92474      540.14005    
      2600  -77779.258      404.28077     -77374.977      199.96466      199.91936      540.40678    
      2700  -77770.845      406.21798     -77364.627      199.96137      199.91434      540.67352    
      2800  -77764.531      416.63418     -77347.896      199.95563      199.90672      540.94026    
      2900  -77749.952      413.30245     -77336.65       199.95374      199.90337      541.20699    
      3000  -77750.5        413.04852     -77337.451      199.94802      199.89669      541.47373    
      3100  -77754.882      409.18622     -77345.696      199.94345      199.89108      541.74046    
      3200  -77753.686      404.67831     -77349.007      199.93872      199.88567      542.0072     
      3300  -77747.599      405.56633     -77342.033      199.93225      199.8787       542.27394    
      3400  -77742.914      416.15042     -77326.764      199.92705      199.87346      542.54067    
      3500  -77731.156      417.67531     -77313.48       199.92012      199.86669      542.80741    
      3600  -77721.11       411.01203     -77310.098      199.91386      199.86098      543.07414    
      3700  -77724.892      409.81111     -77315.081      199.90734      199.85513      543.34088    
      3800  -77727.935      408.49869     -77319.436      199.89932      199.84752      543.60761    
      3900  -77718.631      403.63418     -77314.997      199.89253      199.84141      543.87435    
      4000  -77713.024      411.98473     -77301.039      199.88419      199.83362      544.14109    
      4100  -77700.197      414.67635     -77285.521      199.87656      199.82639      544.40782    
      4200  -77693.41       416.23987     -77277.17       199.86907      199.81887      544.67456    
      4300  -77691.499      412.13096     -77279.368      199.86114      199.8108       544.94129    
      4400  -77689.252      405.62339     -77283.629      199.85365      199.80259      545.20803    
      4500  -77682.039      400.38883     -77281.65       199.84498      199.79331      545.47477    
      4600  -77679.561      409.65405     -77269.907      199.83715      199.78444      545.7415     
      4700  -77667.573      413.56329     -77254.01       199.82939      199.77485      546.00824    
      4800  -77657.951      414.70333     -77243.248      199.8207       199.76427      546.27497    
      4900  -77653.758      411.92135     -77241.836      199.81377      199.75478      546.54171    
      5000  -77651.859      406.73557     -77245.123      199.80493      199.74346      546.80844    
      5100  -77650.371      406.31407     -77244.057      199.79616      199.73191      547.07518    
      5200  -77635.076      401.16644     -77233.91       199.78832      199.72081      547.34192    
      5300  -77627.758      409.73892     -77218.019      199.77875      199.70775      547.60865    
      5400  -77617.786      412.78729     -77204.998      199.77055      199.69615      547.87539    
      5500  -77614.784      414.26766     -77200.517      199.76051      199.68261      548.14212    
      5600  -77612.753      410.14021     -77202.612      199.75117      199.6702       548.40886    
      5700  -77610.816      408.44954     -77202.366      199.74076      199.65683      548.6756     
      5800  -77599.968      406.67223     -77193.296      199.72996      199.64266      548.94233    
      5900  -77584.052      407.02069     -77177.031      199.72006      199.62987      549.20907    
      6000  -77576.446      414.44291     -77162.003      199.7081       199.6149       549.4758     
      6100  -77568.546      414.20636     -77154.34       199.69692      199.60096      549.74254    
      6200  -77567.002      412.44497     -77154.557      199.68504      199.58648      550.00927    
      6300  -77564.766      409.70881     -77155.057      199.67213      199.57164      550.27601    
      6400  -77555.547      406.40118     -77149.145      199.65942      199.55751      550.54275    
      6500  -77542.772      407.33979     -77135.432      199.64507      199.54213      550.80948    
      6600  -77532.638      413.80573     -77118.832      199.63153      199.52778      551.07622    
      6700  -77521.067      414.47142     -77106.595      199.61648      199.5124       551.34295    
      6800  -77515.753      413.08731     -77102.666      199.6012       199.49694      551.60969    
      6900  -77512.791      410.28008     -77102.511      199.58615      199.48153      551.87643    
      7000  -77505.507      406.48409     -77099.023      199.57017      199.46535      552.14316    
      7100  -77497.648      409.44327     -77088.204      199.55355      199.4489       552.4099     
      7200  -77484.59       411.92351     -77072.667      199.53683      199.43253      552.67663    
      7300  -77469.121      410.83354     -77058.288      199.5194       199.41578      552.94337    
      7400  -77460.79       411.3096      -77049.48       199.5014       199.39825      553.2101     
      7500  -77456.963      410.88368     -77046.079      199.48378      199.38115      553.47684    
      7600  -77451.468      408.67394     -77042.794      199.46541      199.36278      553.74358    
      7700  -77445.354      410.50829     -77034.846      199.44694      199.34432      554.01031    
      7800  -77431.948      410.96939     -77020.978      199.42771      199.32466      554.27705    
      7900  -77418.185      413.43489     -77004.75       199.40899      199.30524      554.54378    
      8000  -77401.78       410.01896     -76991.761      199.38992      199.28533      554.81052    
      8100  -77399.083      412.93563     -76986.147      199.37044      199.26453      555.07725    
      8200  -77388.702      405.179       -76983.523      199.35089      199.24311      555.34399    
      8300  -77385.016      407.15526     -76977.861      199.33135      199.22103      555.61073    
      8400  -77375.397      410.70173     -76964.695      199.3109       199.19804      555.87746    
      8500  -77357.176      409.4591      -76947.716      199.29123      199.17554      556.1442     
      8600  -77344.396      411.31455     -76933.082      199.27041      199.15165      556.41093    
      8700  -77331.225      407.42041     -76923.804      199.24956      199.12712      556.67767    
      8800  -77328.101      409.13079     -76918.97       199.22876      199.10259      556.94441    
      8900  -77322.432      409.40666     -76913.025      199.20671      199.0765       557.21114    
      9000  -77306.19       404.17166     -76902.019      199.18533      199.05102      557.47788    
      9100  -77297.636      410.78451     -76886.851      199.16258      199.02404      557.74461    
      9200  -77282.429      411.15183     -76871.277      199.14004      198.99698      558.01135    
      9300  -77271.781      412.59101     -76859.19       199.11678      198.96966      558.27808    
      9400  -77264.845      412.45458     -76852.391      199.09283      198.94169      558.54482    
      9500  -77258.631      412.54911     -76846.082      199.06794      198.91273      558.81156    
      9600  -77241.539      405.54223     -76835.997      199.04324      198.88422      559.07829    
      9700  -77232.592      412.16045     -76820.431      199.01761      198.85483      559.34503    
      9800  -77212.164      408.47278     -76803.692      198.99146      198.82519      559.61176    
      9900  -77203.673      413.71802     -76789.955      198.96462      198.79488      559.8785     
     10000  -77191.62       409.73369     -76781.886      198.93784      198.76502      560.14524    
     10100  -77184.7        408.2467      -76776.454      198.90935      198.73376      560.41197    
     10200  -77173.488      405.67785     -76767.81       198.88137      198.70333      560.67871    
     10300  -77159.937      407.14789     -76752.789      198.85173      198.67204      560.94544    
     10400  -77148.653      413.72985     -76734.923      198.82157      198.64045      561.21218    
     10500  -77129.323      410.66195     -76718.661      198.79107      198.60887      561.47891    
     10600  -77117.878      411.04771     -76706.83       198.75966      198.57675      561.74565    
     10700  -77112.82       413.03648     -76699.784      198.72828      198.54466      562.01239    
     10800  -77098.321      406.25723     -76692.064      198.69587      198.51113      562.27912    
     10900  -77085.523      405.78239     -76679.741      198.66341      198.47742      562.54586    
     11000  -77073.416      411.73396     -76661.682      198.63081      198.4433       562.81259    
     11100  -77054.438      410.45057     -76643.987      198.59744      198.40849      563.07933    
     11200  -77040.927      409.76704     -76631.16       198.56396      198.37325      563.34607    
     11300  -77033.872      409.28733     -76624.585      198.53001      198.33749      563.6128     
     11400  -77023.521      405.7445      -76617.776      198.49576      198.30096      563.87954    
     11500  -77008.978      406.82601     -76602.152      198.462        198.26475      564.14627    
     11600  -76993.286      409.54588     -76583.74       198.42682      198.2266       564.41301    
     11700  -76977.887      410.17521     -76567.712      198.39222      198.18873      564.67974    
     11800  -76965.289      411.49126     -76553.798      198.35728      198.15021      564.94648    
     11900  -76954.095      411.46721     -76542.628      198.3217       198.11056      565.21322    
     12000  -76942.909      407.0837      -76535.825      198.2869       198.0715       565.47995    
     12100  -76924          402.0656      -76521.934      198.25146      198.03159      565.74669    
     12200  -76911.309      410.57656     -76500.732      198.2155       197.99087      566.01342    
     12300  -76895.085      411.72222     -76483.363      198.17935      197.95007      566.28016    
     12400  -76883.863      413.52148     -76470.342      198.1431       197.90916      566.5469     
     12500  -76866.676      407.08395     -76459.592      198.10642      197.86761      566.81363    
     12600  -76861.521      408.95192     -76452.569      198.06993      197.82627      567.08037    
     12700  -76846.946      406.03867     -76440.907      198.03305      197.78443      567.3471     
     12800  -76827.968      411.49202     -76416.476      197.99674      197.74299      567.61384    
     12900  -76807.12       408.57231     -76398.548      197.95902      197.70043      567.88057    
     13000  -76794.317      410.68303     -76383.634      197.92161      197.65849      568.14731    
     13100  -76776.525      404.87385     -76371.651      197.88474      197.61771      568.41405    
     13200  -76772.565      410.99674     -76361.569      197.84562      197.57496      568.68078    
     13300  -76756.085      406.35932     -76349.726      197.80885      197.53471      568.94752    
     13400  -76737.654      408.17255     -76329.482      197.76957      197.4926       569.21425    
     13500  -76716.742      409.56808     -76307.173      197.73207      197.45223      569.48099    
     13600  -76703.1        411.42097     -76291.679      197.69405      197.41147      569.74773    
     13700  -76687.314      406.63797     -76280.676      197.6553       197.37016      570.01446    
     13800  -76676.404      405.62247     -76270.782      197.61824      197.33106      570.2812     
     13900  -76662.54       406.96201     -76255.578      197.57946      197.29028      570.54793    
     14000  -76642.375      413.32771     -76229.048      197.54153      197.25134      570.81467    
     14100  -76624.382      412.55731     -76211.825      197.50423      197.21295      571.0814     
     14200  -76607.697      406.68783     -76201.009      197.4652       197.17313      571.34814    
     14300  -76597.426      407.00697     -76190.419      197.42841      197.13588      571.61488    
     14400  -76581.262      406.47207     -76174.79       197.38991      197.09698      571.88161    
     14500  -76565.208      411.45303     -76153.755      197.35306      197.05938      572.14835    
     14600  -76538.06       408.26974     -76129.791      197.3166       197.02199      572.41508    
     14700  -76528.808      413.43693     -76115.371      197.27951      196.98397      572.68182    
     14800  -76516.282      412.33154     -76103.95       197.24461      196.94767      572.94856    
     14900  -76502.725      410.89524     -76091.829      197.2077       196.90937      573.21529    
     15000  -76486.113      409.29991     -76076.813      197.17344      196.87364      573.48203    
     15100  -76467.005      410.62418     -76056.381      197.13865      196.83709      573.74876    
     15200  -76442.896      411.56337     -76031.333      197.10394      196.80064      574.0155     
     15300  -76424.962      409.29947     -76015.663      197.07155      196.76618      574.28223    
     15400  -76414.05       409.2783      -76004.771      197.03805      196.72954      574.54897    
     15500  -76397.988      406.92644     -75991.062      197.00686      196.69483      574.81571    
     15600  -76378.504      404.9985      -75973.505      196.9752       196.65905      575.08244    
     15700  -76363.482      409.01068     -75954.471      196.94446      196.62389      575.34918    
     15800  -76349.089      414.29682     -75934.792      196.91495      196.59036      575.61591    
     15900  -76325.791      415.13733     -75910.653      196.8846       196.55597      575.88265    
     16000  -76307.828      417.41959     -75890.408      196.85612      196.52324      576.14939    
     16100  -76290.803      409.99979     -75880.803      196.82729      196.49041      576.41612    
     16200  -76276.752      409.20828     -75867.544      196.79794      196.45661      576.68286    
     16300  -76264.095      412.26796     -75851.827      196.77177      196.42593      576.94959    
     16400  -76240.772      407.24509     -75833.526      196.74311      196.39311      577.21633    
     16500  -76223.785      414.55432     -75809.231      196.71729      196.36291      577.48306    
     16600  -76200.458      412.77916     -75787.679      196.69129      196.33278      577.7498     
     16700  -76184.253      410.29753     -75773.956      196.6637       196.30163      578.01654    
     16800  -76169.949      407.49366     -75762.455      196.63932      196.27397      578.28327    
     16900  -76154.657      410.90086     -75743.756      196.61179      196.24367      578.55001    
     17000  -76131.763      408.44119     -75723.322      196.58806      196.21749      578.81674    
     17100  -76109.151      408.54532     -75700.605      196.56235      196.18966      579.08348    
     17200  -76091.865      413.68066     -75678.185      196.53688      196.16254      579.35022    
     17300  -76073.862      415.05568     -75658.806      196.51364      196.13802      579.61695    
     17400  -76054.972      407.13799     -75647.834      196.48703      196.11082      579.88369    
     17500  -76036.891      402.55235     -75634.338      196.46394      196.08732      580.15042    
     17600  -76023.972      409.01416     -75614.958      196.43935      196.06283      580.41716    
     17700  -76006.962      416.40188     -75590.56       196.41466      196.03875      580.68389    
     17800  -75982.585      415.58429     -75567.001      196.39187      196.01717      580.95063    
     17900  -75961.238      411.61696     -75549.621      196.36699      195.99335      581.21737    
     18000  -75941.884      408.053       -75533.831      196.34477      195.97251      581.4841     
     18100  -75924.505      408.75778     -75515.747      196.32104      195.94979      581.75084    
     18200  -75907.53       409.16161     -75498.368      196.29896      195.92858      582.01757    
     18300  -75889.243      408.33656     -75480.906      196.27742      195.9079       582.28431    
     18400  -75871.313      408.42418     -75462.888      196.25506      195.88654      582.55105    
     18500  -75850.487      409.59952     -75440.888      196.23455      195.86685      582.81778    
     18600  -75825.124      409.60946     -75415.514      196.21368      195.8466       583.08452    
     18700  -75809.259      415.34189     -75393.917      196.19319      195.82619      583.35125    
     18800  -75790.26       410.86384     -75379.396      196.17438      195.80707      583.61799    
     18900  -75770.497      403.53051     -75366.966      196.15445      195.78637      583.88472    
     19000  -75753.223      407.20342     -75346.019      196.13666      195.76757      584.15146    
     19100  -75728.645      407.1333      -75321.511      196.11833      195.74806      584.4182     
     19200  -75708.545      409.95068     -75298.594      196.09997      195.72815      584.68493    
     19300  -75687.484      409.14877     -75278.335      196.08388      195.70996      584.95167    
     19400  -75668.66       409.40857     -75259.252      196.06599      195.6897       585.2184     
     19500  -75650.726      408.80369     -75241.922      196.05037      195.67159      585.48514    
     19600  -75633.183      401.78879     -75231.394      196.03364      195.65207      585.75187    
     19700  -75613.689      403.78307     -75209.906      196.01786      195.63337      586.01861    
     19800  -75585.85       404.32573     -75181.525      196.00277      195.61535      586.28535    
     19900  -75568.018      411.40397     -75156.614      195.9864       195.59591      586.55208    
     20000  -75544.673      410.98367     -75133.69       195.97203      195.5785       586.81882    
     20100  -75527.098      414.29275     -75112.805      195.957        195.56022      587.08555    
     20200  -75505.621      407.87543     -75097.746      195.94163      195.54191      587.35229    
     20300  -75487.194      404.57823     -75082.616      195.92793      195.5253       587.61903    
     20400  -75466.472      407.44007     -75059.032      195.91253      195.50709      587.88576    
     20500  -75440.249      408.04557     -75032.204      195.89841      195.4905       588.1525     
     20600  -75421.347      411.3366      -75010.01       195.88354      195.47376      588.41923    
     20700  -75395.884      406.39778     -74989.486      195.86833      195.45708      588.68597    
     20800  -75376.764      406.79668     -74969.968      195.85456      195.44225      588.9527     
     20900  -75362.855      409.64142     -74953.214      195.8386       195.42563      589.21944    
     21000  -75344.446      408.27336     -74936.173      195.82438      195.41065      589.48618    
     21100  -75317.319      407.78226     -74909.537      195.8092       195.39534      589.75291    
     21200  -75287.1        405.41754     -74881.683      195.79394      195.38031      590.01965    
     21300  -75273.305      414.54375     -74858.761      195.77977      195.36658      590.28638    
     21400  -75247.497      409.64357     -74837.853      195.76362      195.35155      590.55312    
     21500  -75228.743      408.14693     -74820.596      195.74929      195.33843      590.81986    
     21600  -75208.836      404.59848     -74804.238      195.733        195.32372      591.08659    
     21700  -75186.842      406.8078      -74780.035      195.71758      195.30988      591.35333    
     21800  -75161.076      411.84325     -74749.232      195.70343      195.29739      591.62006    
     21900  -75135.772      409.22752     -74726.545      195.68658      195.28197      591.8868     
     22000  -75117.301      410.23439     -74707.066      195.67261      195.26933      592.15353    
     22100  -75094.662      405.21962     -74689.442      195.65699      195.25505      592.42027    
     22200  -75076.878      405.16113     -74671.717      195.64094      195.24038      592.68701    
     22300  -75055.094      408.07747     -74647.017      195.62649      195.22704      592.95374    
     22400  -75024.176      407.89142     -74616.285      195.61047      195.21139      593.22048    
     22500  -75004.842      412.68016     -74592.162      195.59671      195.19798      593.48721    
     22600  -74981.651      409.88926     -74571.762      195.58143      195.18262      593.75395    
     22700  -74963.434      408.22001     -74555.214      195.56683      195.16729      594.02069    
     22800  -74944.616      408.00444     -74536.611      195.55317      195.15278      594.28742    
     22900  -74915.676      407.42126     -74508.255      195.53855      195.13663      594.55416    
     23000  -74888.191      410.02329     -74478.168      195.52481      195.12116      594.82089    
     23100  -74865.976      409.86064     -74456.116      195.51118      195.10566      595.08763    
     23200  -74847.823      409.74296     -74438.08       195.4975       195.08964      595.35436    
     23300  -74830.362      410.36818     -74419.993      195.48436      195.07388      595.6211     
     23400  -74801.81       405.12879     -74396.681      195.47009      195.05689      595.88784    
     23500  -74773.915      410.36382     -74363.551      195.45759      195.04143      596.15457    
     23600  -74753.762      413.83682     -74339.925      195.44443      195.0255       596.42131    
     23700  -74728.981      408.10875     -74320.872      195.42968      195.00775      596.68804    
     23800  -74710.607      407.49126     -74303.116      195.41813      194.9931       596.95478    
     23900  -74683.643      403.80317     -74279.84       195.40304      194.97502      597.22152    
     24000  -74657.296      409.4194      -74247.876      195.39069      194.95984      597.48825    
     24100  -74631.749      410.50859     -74221.24       195.37689      194.94347      597.75499    
     24200  -74614.959      413.47736     -74201.482      195.36123      194.92608      598.02172    
     24300  -74592.426      409.30657     -74183.119      195.34913      194.91263      598.28846    
     24400  -74569.806      408.46683     -74161.339      195.33184      194.89436      598.55519    
     24500  -74542.21       408.32807     -74133.882      195.31845      194.88044      598.82193    
     24600  -74514.409      412.27983     -74102.129      195.30371      194.86523      599.08867    
     24700  -74491.004      410.62334     -74080.38       195.28696      194.84837      599.3554     
     24800  -74471.325      409.0033      -74062.322      195.27318      194.83523      599.62214    
     24900  -74447.176      406.45428     -74040.722      195.25479      194.81833      599.88887    
     25000  -74424.092      408.81568     -74015.276      195.2394       194.80488      600.15561    
     25100  -74400.609      411.0196      -73989.59       195.22341      194.79087      600.42235    
     25200  -74376.087      410.954       -73965.133      195.20522      194.77446      600.68908    
     25300  -74347.665      406.60897     -73941.056      195.19074      194.76157      600.95582    
     25400  -74328.411      412.14802     -73916.263      195.17273      194.74557      601.22255    
     25500  -74302.328      411.70819     -73890.619      195.15605      194.73093      601.48929    
     25600  -74273.41       410.10765     -73863.302      195.13962      194.71673      601.75602    
     25700  -74251.665      412.54988     -73839.115      195.12149      194.70079      602.02276    
     25800  -74229.965      409.27045     -73820.695      195.10578      194.68689      602.2895     
     25900  -74204.418      403.86667     -73800.551      195.08815      194.67084      602.55623    
     26000  -74179.797      406.67418     -73773.123      195.07139      194.65512      602.82297    
     26100  -74148.963      407.14628     -73741.817      195.0562       194.64064      603.0897     
     26200  -74126.701      409.97224     -73716.728      195.03771      194.62249      603.35644    
     26300  -74100.087      406.94288     -73693.144      195.0222       194.6074       603.62318    
     26400  -74077.912      407.21385     -73670.698      195.00572      194.59096      603.88991    
     26500  -74054.167      405.48598     -73648.681      194.98785      194.5725       604.15665    
     26600  -74031.297      406.12225     -73625.175      194.97373      194.55702      604.42338    
     26700  -74002.421      407.64752     -73594.774      194.95538      194.53716      604.69012    
     26800  -73977.575      413.06598     -73564.509      194.94061      194.5203       604.95685    
     26900  -73952.333      412.47055     -73539.862      194.92452      194.50207      605.22359    
     27000  -73928.58       408.55311     -73520.027      194.90664      194.4819       605.49033    
     27100  -73908.34       406.44287     -73501.897      194.89224      194.46515      605.75706    
     27200  -73881.72       406.47752     -73475.242      194.87411      194.44407      606.0238     
     27300  -73851.283      404.42515     -73446.857      194.85886      194.426        606.29053    
     27400  -73826.549      409.36286     -73417.187      194.84278      194.40664      606.55727    
     27500  -73802.126      413.54739     -73388.579      194.82485      194.38541      606.82401    
     27600  -73775.641      412.0904      -73363.55       194.8103       194.36811      607.09074    
     27700  -73750.914      404.29869     -73346.615      194.79143      194.34685      607.35748    
     27800  -73730.344      405.65621     -73324.688      194.77446      194.32772      607.62421    
     27900  -73705.077      410.43837     -73294.639      194.75844      194.30959      607.89095    
     28000  -73670.144      405.42877     -73264.715      194.73837      194.28766      608.15768    
     28100  -73647.008      409.33807     -73237.67       194.72277      194.27028      608.42442    
     28200  -73617.684      406.7417      -73210.942      194.70348      194.24964      608.69116    
     28300  -73589.883      404.99242     -73184.89       194.68479      194.22984      608.95789    
     28400  -73567.128      409.5342      -73157.593      194.66758      194.21256      609.22463    
     28500  -73541.328      410.63671     -73130.691      194.64635      194.1913       609.49136    
     28600  -73519.919      413.0244      -73106.894      194.62817      194.17387      609.7581     
     28700  -73490.663      404.94599     -73085.717      194.60859      194.15469      610.02484    
     28800  -73466.323      404.39668     -73061.926      194.58763      194.13449      610.29157    
     28900  -73436.308      406.33197     -73029.976      194.56989      194.11753      610.55831    
     29000  -73412.43       414.86682     -72997.563      194.54761      194.09676      610.82504    
     29100  -73386.248      413.26226     -72972.986      194.52797      194.07929      611.09178    
     29200  -73357.702      406.12725     -72951.575      194.50769      194.06128      611.35851    
     29300  -73332.079      402.17224     -72929.907      194.48458      194.04064      611.62525    
     29400  -73308.273      403.51177     -72904.761      194.46589      194.02383      611.89199    
     29500  -73278.021      407.26022     -72870.761      194.4438       194.00373      612.15872    
     29600  -73249.427      409.6344      -72839.792      194.42264      193.98409      612.42546    
     29700  -73225.786      412.41987     -72813.366      194.40302      193.96633      612.69219    
     29800  -73201.283      409.08506     -72792.198      194.38008      193.94492      612.95893    
     29900  -73176.317      404.83894     -72771.478      194.36037      193.9266       613.22567    
     30000  -73149.535      406.13153     -72743.404      194.33866      193.90549      613.4924     
     30100  -73122.496      409.38705     -72713.109      194.31788      193.88503      613.75914    
     30200  -73094.758      410.10672     -72684.651      194.29927      193.86619      614.02587    
     30300  -73063.849      408.54996     -72655.299      194.27699      193.84332      614.29261    
     30400  -73037.505      412.3188      -72625.186      194.25787      193.82362      614.55934    
     30500  -73005.366      410.63913     -72594.727      194.2376       193.80236      614.82608    
     30600  -72975.198      409.88044     -72565.317      194.2161       193.77917      615.09282    
     30700  -72951.274      406.8767      -72544.397      194.19821      193.75934      615.35955    
     30800  -72931.177      407.73837     -72523.439      194.17621      193.73486      615.62629    
     30900  -72902.675      405.38873     -72497.287      194.1576       193.7139       615.89302    
     31000  -72878.445      412.80321     -72465.642      194.13813      193.69194      616.15976    
     31100  -72848.767      416.0056      -72432.762      194.11596      193.66734      616.4265     
     31200  -72817.884      411.16462     -72406.72       194.09774      193.64663      616.69323    
     31300  -72793.317      410.91774     -72382.399      194.0759       193.62189      616.95997    
     31400  -72765.739      407.06266     -72358.677      194.05532      193.59891      617.2267     
     31500  -72736.576      403.12188     -72333.454      194.03579      193.57655      617.49344    
     31600  -72713.863      410.39246     -72303.471      194.01352      193.55211      617.76017    
     31700  -72681.579      412.0423      -72269.537      193.99365      193.52987      618.02691    
     31800  -72652.668      411.73796     -72240.93       193.97215      193.50638      618.29365    
     31900  -72630.728      412.85024     -72217.877      193.94937      193.48185      618.56038    
     32000  -72604.203      406.83021     -72197.373      193.92932      193.46022      618.82712    
     32100  -72579.535      409.62652     -72169.908      193.90595      193.43554      619.09385    
     32200  -72548.996      410.0572      -72138.939      193.88395      193.41283      619.36059    
     32300  -72516.635      407.59549     -72109.039      193.86277      193.39077      619.62732    
     32400  -72490.564      412.36895     -72078.195      193.83853      193.36594      619.89406    
     32500  -72458.308      410.07187     -72048.236      193.81769      193.3448       620.1608     
     32600  -72423.745      404.99174     -72018.753      193.79371      193.32091      620.42753    
     32700  -72401.44       410.46296     -71990.977      193.76988      193.29765      620.69427    
     32800  -72376.093      407.51443     -71968.579      193.74858      193.27714      620.961      
     32900  -72355.772      410.94728     -71944.825      193.72262      193.25198      621.22774    
     33000  -72322.767      407.4631      -71915.304      193.70102      193.23139      621.49448    
     33100  -72291.075      412.19674     -71878.879      193.67703      193.209        621.76121    
     33200  -72262.694      412.59155     -71850.102      193.65114      193.18505      622.02795    
     33300  -72235.369      410.50405     -71824.865      193.62918      193.16524      622.29468    
     33400  -72209.076      408.02559     -71801.05       193.60299      193.14124      622.56142    
     33500  -72182.176      404.93795     -71777.238      193.57936      193.11974      622.82815    
     33600  -72156.299      403.79367     -71752.506      193.55595      193.09848      623.09489    
     33700  -72128.257      410.23498     -71718.022      193.52956      193.07417      623.36163    
     33800  -72098.013      414.01572     -71683.997      193.50769      193.05415      623.62836    
     33900  -72064.658      411.87629     -71652.782      193.48157      193.02993      623.8951     
     34000  -72035.391      410.83248     -71624.559      193.45747      193.00762      624.16183    
     34100  -72011.006      408.30835     -71602.698      193.43441      192.98618      624.42857    
     34200  -71984.042      404.7718      -71579.271      193.40835      192.96079      624.69531    
     34300  -71955.99       408.22733     -71547.763      193.38718      192.93995      624.96204    
     34400  -71926.573      411.55181     -71515.021      193.36326      192.91566      625.22878    
     34500  -71894.632      409.57683     -71485.055      193.33867      192.89074      625.49551    
     34600  -71864.332      409.6765      -71454.655      193.31819      192.8698       625.76225    
     34700  -71829.191      406.09372     -71423.098      193.29339      192.84386      626.02898    
     34800  -71804.939      415.27815     -71389.661      193.27146      192.82066      626.29572    
     34900  -71769.876      409.7751      -71360.101      193.25044      192.79753      626.56246    
     35000  -71750.787      411.03613     -71339.75       193.22627      192.77074      626.82919    
     35100  -71722.94       407.42088     -71315.519      193.20659      192.74865      627.09593    
     35200  -71693.339      408.49484     -71284.844      193.18323      192.723        627.36266    
     35300  -71664.487      414.15272     -71250.335      193.16053      192.69782      627.6294     
     35400  -71628.988      409.82539     -71219.162      193.1406       192.67525      627.89614    
     35500  -71604.684      412.99054     -71191.693      193.11625      192.64781      628.16287    
     35600  -71575.342      410.47267     -71164.869      193.0958       192.62398      628.42961    
     35700  -71543.789      406.83708     -71136.952      193.07412      192.59937      628.69634    
     35800  -71521.923      414.77785     -71107.145      193.05022      192.57286      628.96308    
     35900  -71489.059      416.33838     -71072.721      193.0301       192.5507       629.22981    
     36000  -71451.4        412.03229     -71039.368      193.00526      192.52429      629.49655    
     36100  -71430.99       415.93164     -71015.059      192.98298      192.50039      629.76329    
     36200  -71399.156      407.0443      -70992.112      192.96175      192.47734      630.03002    
     36300  -71369.173      405.85306     -70963.32       192.9361       192.45039      630.29676    
     36400  -71341.929      410.02923     -70931.899      192.91572      192.42928      630.56349    
     36500  -71310.363      413.00401     -70897.359      192.89092      192.40436      630.83023    
     36600  -71273.293      411.14961     -70862.143      192.86685      192.38061      631.09697    
     36700  -71242.527      414.66883     -70827.858      192.84572      192.35966      631.3637     
     36800  -71216.27       412.36968     -70803.9        192.81971      192.3337       631.63044    
     36900  -71193.779      410.66896     -70783.11       192.79791      192.31237      631.89717    
     37000  -71163.693      405.8399      -70757.854      192.77404      192.28973      632.16391    
     37100  -71139.469      410.62714     -70728.842      192.74834      192.26575      632.43064    
     37200  -71104.72       409.0288      -70695.691      192.72714      192.2461       632.69738    
     37300  -71071.594      411.01904     -70660.575      192.70132      192.22154      632.96412    
     37400  -71039.944      409.64304     -70630.301      192.67813      192.19982      633.23085    
     37500  -71017.754      408.18371     -70609.57       192.65624      192.17974      633.49759    
     37600  -70992.476      408.5074      -70583.968      192.6293       192.15478      633.76432    
     37700  -70959.573      408.3281      -70551.245      192.608        192.13574      634.03106    
     37800  -70926.37       410.53057     -70515.84       192.58354      192.11316      634.2978     
     37900  -70897.424      413.32555     -70484.099      192.5586       192.08988      634.56453    
     38000  -70865.674      410.63658     -70455.038      192.53824      192.0707       634.83127    
     38100  -70841.622      411.63229     -70429.99       192.51288      192.04663      635.098      
     38200  -70813.914      406.24482     -70407.669      192.4904       192.02589      635.36474    
     38300  -70781.93       406.26204     -70375.667      192.46846      192.00531      635.63147    
     38400  -70749.962      410.48046     -70339.482      192.4434       191.98118      635.89821    
     38500  -70718.333      410.46785     -70307.865      192.42342      191.96122      636.16495    
     38600  -70687.721      410.74863     -70276.972      192.40093      191.93842      636.43168    
     38700  -70657.778      411.13393     -70246.644      192.37872      191.91547      636.69842    
     38800  -70630.098      412.02703     -70218.071      192.35929      191.89557      636.96515    
     38900  -70593.342      402.25201     -70191.09       192.33579      191.87162      637.23189    
     39000  -70568.585      406.08272     -70162.502      192.31608      191.85057      637.49863    
     39100  -70537.611      408.81211     -70128.799      192.29694      191.82927      637.76536    
     39200  -70506.773      414.45177     -70092.321      192.27415      191.80393      638.0321     
     39300  -70474.596      413.12824     -70061.468      192.25619      191.7842       638.29883    
     39400  -70445.851      410.85067     -70035.001      192.23596      191.76249      638.56557    
     39500  -70420.32       411.50066     -70008.82       192.21382      191.73869      638.8323     
     39600  -70387.432      408.28112     -69979.151      192.19638      191.71895      639.09904    
     39700  -70358.779      410.732       -69948.047      192.1752       191.6955       639.36578    
     39800  -70321.951      406.08916     -69915.861      192.15528      191.67334      639.63251    
     39900  -70292.514      410.10528     -69882.408      192.13679      191.6527       639.89925    
     40000  -70263.796      415.17301     -69848.623      192.11497      191.62913      640.16598    
     40100  -70227.948      408.72643     -69819.222      192.09667      191.60923      640.43272    
     40200  -70206.789      409.15902     -69797.63       192.07679      191.58727      640.69946    
     40300  -70175.021      405.71113     -69769.31       192.05572      191.56442      640.96619    
     40400  -70143.56       408.65921     -69734.901      192.03747      191.54489      641.23293    
     40500  -70110.574      411.46211     -69699.112      192.0163       191.52235      641.49966    
     40600  -70079.344      410.08166     -69669.262      191.99633      191.50145      641.7664     
     40700  -70050.468      409.20867     -69641.259      191.97751      191.48153      642.03313    
     40800  -70019.774      406.68699     -69613.087      191.95557      191.45933      642.29987    
     40900  -69991.403      407.22192     -69584.182      191.93725      191.4405       642.56661    
     41000  -69964.148      410.23734     -69553.911      191.91719      191.42025      642.83334    
     41100  -69928.995      409.36345     -69519.631      191.89538      191.39896      643.10008    
     41200  -69898.636      414.10006     -69484.536      191.87736      191.38154      643.36681    
     41300  -69864.617      411.65979     -69452.957      191.85529      191.36075      643.63355    
     41400  -69836.202      407.34829     -69428.854      191.8355       191.34156      643.90029    
     41500  -69811.919      408.09942     -69403.819      191.81643      191.32366      644.16702    
     41600  -69777.721      406.73966     -69370.981      191.79432      191.30317      644.43376    
     41700  -69745.353      409.46718     -69335.886      191.77522      191.28607      644.70049    
     41800  -69714.997      411.55382     -69303.443      191.75484      191.26773      644.96723    
     41900  -69679.546      406.49927     -69273.047      191.73355      191.24795      645.23396    
     42000  -69652.724      409.35589     -69243.369      191.71536      191.23167      645.5007     
     42100  -69620.974      407.847       -69213.127      191.6941       191.21221      645.76744    
     42200  -69591.793      409.42659     -69182.367      191.67386      191.19377      646.03417    
     42300  -69559.585      408.21362     -69151.371      191.65618      191.17808      646.30091    
     42400  -69535.89       412.76206     -69123.128      191.63401      191.15774      646.56764    
     42500  -69502.879      405.66082     -69097.218      191.61587      191.14084      646.83438    
     42600  -69469.81       404.45512     -69065.355      191.59694      191.12326      647.10112    
     42700  -69437.732      410.39251     -69027.339      191.57595      191.10363      647.36785    
     42800  -69406.048      411.88612     -68994.162      191.55964      191.0884       647.63459    
     42900  -69374.461      409.03001     -68965.431      191.53931      191.06828      647.90132    
     43000  -69348.198      407.34359     -68940.854      191.5217       191.05056      648.16806    
     43100  -69319.229      403.25292     -68915.976      191.5056       191.03396      648.43479    
     43200  -69288.844      408.89276     -68879.951      191.48541      191.01327      648.70153    
     43300  -69250.951      409.70974     -68841.242      191.46974      190.997        648.96827    
     43400  -69220.557      411.2056      -68809.351      191.45252      190.97864      649.235      
     43500  -69188.872      409.20115     -68779.671      191.43482      190.95937      649.50174    
     43600  -69160.521      409.15869     -68751.363      191.41969      190.94278      649.76847    
     43700  -69132.736      412.02586     -68720.711      191.40192      190.92278      650.03521    
     43800  -69097.053      411.01065     -68686.042      191.38677      190.90552      650.30195    
     43900  -69063.163      414.41011     -68648.753      191.3706       190.88729      650.56868    
     44000  -69031.001      413.24208     -68617.759      191.35259      190.8672       650.83542    
     44100  -69006.116      411.2115      -68594.904      191.33832      190.85062      651.10215    
     44200  -68970.82       404.188       -68566.632      191.3217       190.83172      651.36889    
     44300  -68939.785      407.11562     -68532.669      191.30511      190.81303      651.63562    
     44400  -68908.103      411.17135     -68496.932      191.29054      190.79636      651.90236    
     44500  -68875.201      410.96995     -68464.231      191.27297      190.7769       652.1691     
     44600  -68852.479      413.19566     -68439.283      191.25688      190.75914      652.43583    
     44700  -68817.764      403.96357     -68413.8        191.24105      190.74164      652.70257    
     44800  -68788.929      409.25342     -68379.675      191.22342      190.72284      652.9693     
     44900  -68754.631      411.78503     -68342.846      191.20791      190.7064       653.23604    
     45000  -68718.593      408.91159     -68309.682      191.19086      190.68875      653.50277    
     45100  -68689.804      410.7666      -68279.038      191.17359      190.67086      653.76951    
     45200  -68660.489      410.88054     -68249.609      191.15824      190.65526      654.03625    
     45300  -68625.6        406.35285     -68219.247      191.13989      190.63721      654.30298    
     45400  -68595.642      408.06506     -68187.577      191.12328      190.62105      654.56972    
     45500  -68569.415      414.15519     -68155.26       191.10696      190.60522      654.83645    
     45600  -68532.032      408.06401     -68123.968      191.0886       190.58768      655.10319    
     45700  -68506.028      410.24864     -68095.78       191.07311      190.57312      655.36993    
     45800  -68472.943      402.78784     -68070.155      191.05529      190.55674      655.63666    
     45900  -68447.959      410.25207     -68037.707      191.03769      190.54048      655.9034     
     46000  -68410.888      413.0495      -67997.839      191.02177      190.52605      656.17013    
     46100  -68380.525      416.05206     -67964.473      191.00322      190.50951      656.43687    
     46200  -68345.66       410.30662     -67935.353      190.98658      190.49499      656.7036     
     46300  -68318.938      411.74455     -67907.194      190.96927      190.47952      656.97034    
     46400  -68282.16       401.58734     -67880.573      190.95126      190.46357      657.23708    
     46500  -68256.171      402.68385     -67853.487      190.9352       190.44977      657.50381    
     46600  -68223.786      407.00565     -67816.781      190.9172       190.43366      657.77055    
     46700  -68189.032      411.38329     -67777.649      190.89987      190.41849      658.03728    
     46800  -68155.398      411.04437     -67744.354      190.88361      190.40419      658.30402    
     46900  -68124.526      409.63154     -67714.894      190.86576      190.38778      658.57076    
     47000  -68096.852      407.48724     -67689.364      190.85003      190.37347      658.83749    
     47100  -68066.601      408.48965     -67658.111      190.83341      190.35794      659.10423    
     47200  -68024.351      405.00205     -67619.349      190.81657      190.34204      659.37096    
     47300  -67995.358      414.26792     -67581.09       190.80152      190.32737      659.6377     
     47400  -67969.013      416.897       -67552.116      190.78526      190.311        659.90443    
     47500  -67935.163      409.47999     -67525.683      190.77029      190.2955       660.17117    
     47600  -67905.922      408.88259     -67497.04       190.75486      190.27955      660.43791    
     47700  -67873.982      408.78929     -67465.192      190.73961      190.26347      660.70464    
     47800  -67840.321      412.5061      -67427.815      190.72549      190.24796      660.97138    
     47900  -67806.386      417.64355     -67388.742      190.71021      190.23103      661.23811    
     48000  -67772.843      412.44169     -67360.402      190.69613      190.21512      661.50485    
     48100  -67741.492      407.92164     -67333.571      190.68147      190.19836      661.77159    
     48200  -67712.519      409.05491     -67303.464      190.66669      190.1815       662.03832    
     48300  -67681.264      407.69723     -67273.567      190.65348      190.16623      662.30506    
     48400  -67651.302      408.87884     -67242.423      190.63783      190.14842      662.57179    
     48500  -67619.246      409.55826     -67209.688      190.62425      190.13271      662.83853    
     48600  -67585.464      410.04352     -67175.421      190.6099       190.11597      663.10526    
     48700  -67549.002      407.56486     -67141.437      190.59451      190.09797      663.372      
     48800  -67520.837      410.98481     -67109.852      190.58163      190.08314      663.63874    
     48900  -67493.348      409.0884      -67084.26       190.56575      190.06522      663.90547    
     49000  -67459.217      404.91314     -67054.304      190.55101      190.04848      664.17221    
     49100  -67428.455      408.84231     -67019.612      190.5377       190.03322      664.43894    
     49200  -67392.108      409.88784     -66982.22       190.52127      190.01537      664.70568    
     49300  -67357.406      416.84688     -66940.559      190.50682      189.99967      664.97242    
     49400  -67325.443      414.4694      -66910.973      190.49159      189.98361      665.23915    
     49500  -67301.204      416.78454     -66884.42       190.47541      189.96705      665.50589    
     49600  -67265.837      408.80845     -66857.029      190.46094      189.95204      665.77262    
     49700  -67236.028      407.48046     -66828.548      190.44473      189.93565      666.03936    
     49800  -67202.288      405.40377     -66796.884      190.42857      189.91952      666.30609    
     49900  -67172.318      410.69994     -66761.618      190.41401      189.90564      666.57283    
     50000  -67134.103      411.0694      -66723.033      190.39714      189.88988      666.83957    
     50100  -67104.32       414.86805     -66689.452      190.38054      189.87447      667.1063     
     50200  -67078.617      413.25133     -66665.366      190.36503      189.85995      667.37304    
     50300  -67042.663      406.97839     -66635.685      190.34831      189.8446       667.63977    
     50400  -67012.489      409.62981     -66602.859      190.33209      189.83031      667.90651    
     50500  -66980.291      411.17691     -66569.114      190.31563      189.81598      668.17325    
     50600  -66944.395      410.81933     -66533.576      190.29863      189.80149      668.43998    
     50700  -66912.258      410.82681     -66501.431      190.28251      189.78776      668.70672    
     50800  -66882.601      407.69574     -66474.906      190.26533      189.77278      668.97345    
     50900  -66850.233      404.91093     -66445.322      190.24863      189.75823      669.24019    
     51000  -66821.775      410.60018     -66411.175      190.23216      189.74414      669.50692    
     51100  -66784.271      410.97397     -66373.297      190.21509      189.72921      669.77366    
     51200  -66749.451      416.60179     -66332.85       190.19798      189.71394      670.0404     
     51300  -66717.036      412.52886     -66304.507      190.1832       189.70068      670.30713    
     51400  -66686.923      409.62927     -66277.294      190.16653      189.68527      670.57387    
     51500  -66658.172      409.82716     -66248.345      190.14982      189.66987      670.8406     
     51600  -66626.78       408.21469     -66218.565      190.13482      189.65585      671.10734    
     51700  -66592.143      404.82966     -66187.313      190.11842      189.63992      671.37408    
     51800  -66561.442      408.86118     -66152.581      190.10286      189.62475      671.64081    
     51900  -66525.657      411.36051     -66114.297      190.08885      189.61084      671.90755    
     52000  -66489.525      411.11994     -66078.405      190.07177      189.59354      672.17428    
     52100  -66460.697      409.18483     -66051.512      190.05741      189.57855      672.44102    
     52200  -66432.459      409.43919     -66023.02       190.04352      189.56384      672.70775    
     52300  -66400.149      409.92183     -65990.228      190.02708      189.54626      672.97449    
     52400  -66361.268      405.10438     -65956.164      190.01305      189.53121      673.24123    
     52500  -66331.832      410.82372     -65921.008      189.99771      189.51462      673.50796    
     52600  -66293.207      406.42319     -65886.784      189.98253      189.49787      673.7747     
     52700  -66264.04       406.03139     -65858.009      189.96911      189.48327      674.04143    
     52800  -66236.792      407.16752     -65829.625      189.95272      189.46563      674.30817    
     52900  -66203.86       406.84691     -65797.013      189.93791      189.44914      674.57491    
     53000  -66173.149      413.03884     -65760.11       189.92416      189.4336       674.84164    
     53100  -66132.449      414.09528     -65718.354      189.90709      189.4151       675.10838    
     53200  -66098.038      412.80027     -65685.238      189.89323      189.40019      675.37511    
     53300  -66072.716      413.00819     -65659.707      189.87769      189.38333      675.64185    
     53400  -66041.195      411.24735     -65629.947      189.86117      189.36532      675.90858    
     53500  -66009          408.49458     -65600.505      189.84823      189.35061      676.17532    
     53600  -65977.045      406.96581     -65570.079      189.83202      189.33283      676.44206    
     53700  -65944.47       407.1857      -65537.284      189.81588      189.31544      676.70879    
     53800  -65906.651      406.35524     -65500.295      189.80172      189.30024      676.97553    
     53900  -65879.941      419.27612     -65460.665      189.78492      189.28207      677.24226    
     54000  -65847.793      418.20727     -65429.586      189.76929      189.26534      677.509      
     54100  -65815.806      413.12209     -65402.684      189.75463      189.24974      677.77574    
     54200  -65775.093      403.37644     -65371.717      189.73812      189.2328       678.04247    
     54300  -65747.875      407.82638     -65340.049      189.72232      189.21665      678.30921    
     54400  -65715.805      407.17715     -65308.627      189.70683      189.20117      678.57594    
     54500  -65681.269      403.12803     -65278.141      189.6895       189.18383      678.84268    
     54600  -65648.069      401.88754     -65246.182      189.67416      189.16851      679.10941    
     54700  -65617.389      408.51757     -65208.872      189.65733      189.15225      679.37615    
     54800  -65582.702      415.10441     -65167.598      189.64012      189.13592      679.64289    
     54900  -65544.308      410.55467     -65133.753      189.62358      189.1207       679.90962    
     55000  -65518.1        412.22267     -65105.878      189.60674      189.10504      680.17636    
     55100  -65484.76       410.5794      -65074.181      189.58963      189.08938      680.44309    
     55200  -65454.678      411.62143     -65043.056      189.57267      189.0738       680.70983    
     55300  -65419.003      406.80689     -65012.197      189.55522      189.05752      680.97657    
     55400  -65385.577      404.73752     -64980.84       189.53901      189.04276      681.2433     
     55500  -65359.23       406.88798     -64952.342      189.52122      189.02653      681.51004    
     55600  -65326.285      403.95717     -64922.328      189.50433      189.01098      681.77677    
     55700  -65292.557      410.52394     -64882.033      189.488        188.9959       682.04351    
     55800  -65253.957      413.66707     -64840.29       189.46965      188.97906      682.31024    
     55900  -65216.479      409.16771     -64807.311      189.45337      188.96421      682.57698    
     56000  -65189.313      410.80542     -64778.508      189.43671      188.94879      682.84372    
     56100  -65160.746      413.88259     -64746.863      189.41807      188.93169      683.11045    
     56200  -65124.169      411.60624     -64712.563      189.40279      188.91752      683.37719    
     56300  -65086.137      406.07416     -64680.063      189.38594      188.90132      683.64392    
     56400  -65060.36       406.97591     -64653.384      189.3679       188.88406      683.91066    
     56500  -65030.131      411.72723     -64618.404      189.35266      188.86968      684.17739    
     56600  -64991.357      412.22811     -64579.129      189.33515      188.85292      684.44413    
     56700  -64954.636      413.25539     -64541.381      189.31744      188.83566      684.71087    
     56800  -64918.853      408.99207     -64509.861      189.30203      188.82009      684.9776     
     56900  -64890.379      407.73632     -64482.642      189.28408      188.80198      685.24434    
     57000  -64860.634      410.57969     -64450.055      189.26796      188.7858       685.51107    
     57100  -64824.53       409.02796     -64415.502      189.25137      188.7692       685.77781    
     57200  -64789.039      409.34834     -64379.691      189.23357      188.75089      686.04455    
     57300  -64756.785      409.52723     -64347.258      189.21784      188.73463      686.31128    
     57400  -64721.486      403.44156     -64318.045      189.20033      188.71631      686.57802    
     57500  -64690.623      407.94282     -64282.68       189.18366      188.69875      686.84475    
     57600  -64650.898      406.97974     -64243.918      189.16779      188.68213      687.11149    
     57700  -64619.034      416.13658     -64202.898      189.1503       188.66344      687.37822    
     57800  -64586.967      418.51886     -64168.448      189.13346      188.6454       687.64496    
     57900  -64555.324      413.46147     -64141.863      189.11837      188.62929      687.9117     
     58000  -64525.28       413.46685     -64111.813      189.09958      188.60909      688.17843    
     58100  -64489.55       408.88117     -64080.669      189.084        188.5923       688.44517    
     58200  -64455.688      408.98        -64046.708      189.06796      188.57477      688.7119     
     58300  -64417.737      403.93077     -64013.807      189.04951      188.5551       688.97864    
     58400  -64390.873      408.64116     -63982.231      189.03438      188.53864      689.24538    
     58500  -64360.104      407.76078     -63952.343      189.01762      188.52043      689.51211    
     58600  -64321.897      405.9739      -63915.923      189.00009      188.50153      689.77885    
     58700  -64285.436      415.40751     -63870.029      188.98418      188.4843       690.04558    
     58800  -64251.177      419.96089     -63831.216      188.96561      188.46498      690.31232    
     58900  -64215.885      416.11142     -63799.774      188.94872      188.44719      690.57905    
     59000  -64179.429      409.85627     -63769.573      188.93237      188.42984      690.84579    
     59100  -64147.415      409.15528     -63738.259      188.91447      188.41089      691.11253    
     59200  -64114.17       408.4535      -63705.716      188.89806      188.3938       691.37926    
     59300  -64084.775      412.32178     -63672.453      188.87984      188.37552      691.646      
     59400  -64049.703      411.09042     -63638.612      188.86171      188.3576       691.91273    
     59500  -64015.761      411.49631     -63604.265      188.84513      188.34081      692.17947    
     59600  -63984.034      409.16664     -63574.868      188.82649      188.32189      692.44621    
     59700  -63949.314      407.42391     -63541.89       188.80982      188.3053       692.71294    
     59800  -63911.466      409.83212     -63501.634      188.79203      188.28799      692.97968    
     59900  -63875.296      413.64629     -63461.65       188.77238      188.26897      693.24641    
     60000  -63838.723      411.24068     -63427.482      188.75693      188.25394      693.51315    
     60100  -63805.509      407.73557     -63397.774      188.73797      188.23528      693.77988    
     60200  -63771.584      409.7019      -63361.883      188.72046      188.21803      694.04662    
     60300  -63735.25       408.65099     -63326.599      188.70308      188.20126      694.31336    
     60400  -63702.913      408.9402      -63293.973      188.68316      188.18256      694.58009    
     60500  -63668.974      410.21005     -63258.764      188.6667       188.16728      694.84683    
     60600  -63629.648      407.5575      -63222.09       188.64778      188.14959      695.11356    
     60700  -63595.048      409.66126     -63185.387      188.62853      188.13103      695.3803     
     60800  -63561.758      410.84014     -63150.917      188.61219      188.1153       695.64704    
     60900  -63528.643      411.48659     -63117.156      188.5921       188.0967       695.91377    
     61000  -63491.72       411.26001     -63080.46       188.57424      188.08019      696.18051    
     61100  -63456.467      410.7597      -63045.707      188.55582      188.06306      696.44724    
     61200  -63422.744      410.83301     -63011.911      188.5357       188.04418      696.71398    
     61300  -63383.892      408.15832     -62975.734      188.51903      188.02837      696.98071    
     61400  -63351.193      411.32525     -62939.868      188.49975      188.00943      697.24745    
     61500  -63312.112      409.28585     -62902.826      188.48137      187.99165      697.51419    
     61600  -63282.542      415.45311     -62867.089      188.46426      187.97527      697.78092    
     61700  -63243.366      410.26594     -62833.1        188.4429       187.95453      698.04766    
     61800  -63210.025      413.80415     -62796.221      188.42695      187.93933      698.31439    
     61900  -63173.068      412.03408     -62761.034      188.40769      187.92055      698.58113    
     62000  -63138.179      412.91517     -62725.264      188.38855      187.90166      698.84787    
     62100  -63098.425      410.38057     -62688.044      188.37202      187.8851       699.1146     
     62200  -63062.546      411.09871     -62651.447      188.35225      187.86502      699.38134    
     62300  -63028.271      413.28935     -62614.982      188.33554      187.84807      699.64807    
     62400  -62988.433      410.14494     -62578.288      188.31749      187.82995      699.91481    
     62500  -62955.911      413.08425     -62542.827      188.29811      187.81047      700.18154    
     62600  -62922.196      414.94342     -62507.252      188.28257      187.79454      700.44828    
     62700  -62881.08       411.08903     -62469.991      188.26181      187.77348      700.71502    
     62800  -62842.724      410.16492     -62432.559      188.24583      187.75682      700.98175    
     62900  -62808.2        411.52963     -62396.671      188.22778      187.73825      701.24849    
     63000  -62770.322      412.01385     -62358.308      188.20913      187.71878      701.51522    
     63100  -62733.873      412.04732     -62321.826      188.19328      187.70264      701.78196    
     63200  -62701.917      416.1265      -62285.791      188.17323      187.68205      702.0487     
     63300  -62662.851      414.8297      -62248.021      188.15663      187.66497      702.31543    
     63400  -62626.116      414.4193      -62211.697      188.13954      187.64715      702.58217    
     63500  -62587.587      413.26354     -62174.323      188.12017      187.62713      702.8489     
     63600  -62552.516      416.15949     -62136.357      188.10483      187.61072      703.11564    
     63700  -62510.124      410.63565     -62099.488      188.08579      187.59078      703.38237    
     63800  -62473.478      413.22255     -62060.256      188.0694       187.57349      703.64911    
     63900  -62434.227      412.5328      -62021.694      188.05215      187.55554      703.91585    
     64000  -62397.466      413.86507     -61983.601      188.0338       187.53654      704.18258    
     64100  -62354.98       410.21263     -61944.767      188.01801      187.5198       704.44932    
     64200  -62315.737      409.77129     -61905.966      187.99979      187.50029      704.71605    
     64300  -62280.623      414.22746     -61866.395      187.98391      187.48329      704.98279    
     64400  -62241.166      413.25815     -61827.908      187.96652      187.46509      705.24953    
     64500  -62200.391      411.13059     -61789.26       187.94881      187.44676      705.51626    
     64600  -62160.884      410.02124     -61750.863      187.9331       187.43069      705.783      
     64700  -62122.659      410.869       -61711.79       187.9143       187.41178      706.04973    
     64800  -62087.28       415.07555     -61672.205      187.89789      187.39531      706.31647    
     64900  -62045.854      411.9132      -61633.941      187.88091      187.37862      706.5832     
     65000  -62007.836      413.37214     -61594.464      187.86205      187.36018      706.84994    
     65100  -61965.326      410.47148     -61554.854      187.84629      187.34494      707.11668    
     65200  -61927.299      412.11623     -61515.183      187.82739      187.32681      707.38341    
     65300  -61885.94       411.57631     -61474.364      187.81098      187.31108      707.65015    
     65400  -61845.992      411.82718     -61434.165      187.79302      187.29385      707.91688    
     65500  -61804.394      411.34366     -61393.05       187.77451      187.27666      708.18362    
     65600  -61767.157      415.12327     -61352.034      187.75821      187.2617       708.45036    
     65700  -61724.458      412.99561     -61311.463      187.73944      187.24441      708.71709    
     65800  -61682.976      412.64067     -61270.335      187.72302      187.22952      708.98383    
     65900  -61641.903      412.17904     -61229.724      187.70542      187.21344      709.25056    
     66000  -61601.956      413.66117     -61188.295      187.68726      187.19653      709.5173     
     66100  -61559.97       412.30063     -61147.669      187.67129      187.18188      709.78403    
     66200  -61516.196      409.88876     -61106.307      187.65313      187.16504      710.05077    
     66300  -61479.353      414.42596     -61064.927      187.63662      187.14988      710.31751    
     66400  -61432.688      410.18982     -61022.498      187.62031      187.13506      710.58424    
     66500  -61396.692      417.54251     -60979.15       187.60144      187.11732      710.85098    
     66600  -61352.942      416.37054     -60936.571      187.58722      187.10405      711.11771    
     66700  -61307.706      413.21637     -60894.489      187.56912      187.0868       711.38445    
     66800  -61266.384      414.43124     -60851.953      187.55348      187.07164      711.65119    
     66900  -61224.954      415.1259      -60809.828      187.53797      187.05664      711.91792    
     67000  -61178.5        410.05234     -60768.448      187.52047      187.0394       712.18466    
     67100  -61139.781      414.54024     -60725.241      187.50667      187.02568      712.45139    
     67200  -61094.559      412.66556     -60681.894      187.48995      187.00853      712.71813    
     67300  -61049.479      411.61463     -60637.865      187.47634      186.99392      712.98486    
     67400  -61007.759      413.10814     -60594.651      187.46171      186.97784      713.2516     
     67500  -60964.526      413.11373     -60551.413      187.44635      186.96111      713.51834    
     67600  -60914.489      408.62038     -60505.869      187.43384      186.94697      713.78507    
     67700  -60874.63       413.02268     -60461.608      187.4184       186.93012      714.05181    
     67800  -60830.471      413.19651     -60417.275      187.40531      186.91545      714.31854    
     67900  -60783.199      411.54413     -60371.655      187.39138      186.90004      714.58528    
     68000  -60740.777      413.78427     -60326.993      187.37706      186.88396      714.85202    
     68100  -60696.69       414.26957     -60282.421      187.36496      186.87014      715.11875    
     68200  -60646.529      409.36233     -60237.167      187.35017      186.85353      715.38549    
     68300  -60608.407      416.53973     -60191.867      187.33824      186.84009      715.65222    
     68400  -60557.162      409.98623     -60147.176      187.32405      186.82434      715.91896    
     68500  -60512.187      411.8088      -60100.378      187.31056      186.80939      716.18569    
     68600  -60469.699      416.69399     -60053.005      187.29846      186.79588      716.45243    
     68700  -60423.22       416.45448     -60006.766      187.28382      186.78005      716.71917    
     68800  -60379.172      418.4453      -59960.727      187.27224      186.76719      716.9859     
     68900  -60325.087      411.2024      -59913.885      187.25836      186.75257      717.25264    
     69000  -60279.349      413.63046     -59865.718      187.24477      186.73836      717.51937    
     69100  -60237.302      417.59849     -59819.704      187.23287      186.72604      717.78611    
     69200  -60190.519      416.26756     -59774.252      187.21823      186.71098      718.05284    
     69300  -60142.151      414.70245     -59727.449      187.20692      186.69924      718.31958    
     69400  -60092.548      411.36572     -59681.183      187.19306      186.68513      718.58632    
     69500  -60045.431      412.33448     -59633.096      187.17995      186.67186      718.85305    
     69600  -59998.907      413.66968     -59585.237      187.1686       186.66057      719.11979    
     69700  -59949.691      415.67242     -59534.019      187.15369      186.64621      719.38652    
     69800  -59902.769      416.83061     -59485.938      187.14242      186.63529      719.65326    
     69900  -59853.824      415.8308      -59437.993      187.12911      186.62268      719.92       
     70000  -59802.479      415.0141      -59387.465      187.11538      186.60979      720.18673    
     70100  -59751.988      413.19805     -59338.79       187.10423      186.59955      720.45347    
     70200  -59704.691      414.7239      -59289.967      187.0897       186.58611      720.7202     
     70300  -59657.206      416.87196     -59240.334      187.07831      186.57579      720.98694    
     70400  -59608.714      418.34674     -59190.367      187.06566      186.56421      721.25367    
     70500  -59560.17       421.17745     -59138.993      187.05204      186.55178      721.52041    
     70600  -59506.982      417.96628     -59089.016      187.04128      186.54241      721.78715    
     70700  -59461.908      422.59354     -59039.314      187.0269       186.52968      722.05388    
     70800  -59409.238      421.47769     -58987.76       187.01572      186.52006      722.32062    
     70900  -59357.767      419.82269     -58937.945      187.00334      186.50942      722.58735    
     71000  -59309.336      423.7258      -58885.61       186.98992      186.49776      722.85409    
     71100  -59257.002      421.99341     -58835.009      186.97914      186.48871      723.12083    
     71200  -59207.14       421.54719     -58785.593      186.96584      186.47691      723.38756    
     71300  -59154.997      420.52731     -58734.469      186.95508      186.46734      723.6543     
     71400  -59109.41       427.5009      -58681.909      186.943        186.45655      723.92103    
     71500  -59052.993      423.70788     -58629.285      186.9309       186.44574      724.18777    
     71600  -58999.368      421.13074     -58578.237      186.92016      186.43634      724.4545     
     71700  -58941.998      416.34716     -58525.651      186.90749      186.42493      724.72124    
     71800  -58897.308      425.76251     -58471.546      186.89749      186.41605      724.98798    
     71900  -58840.922      421.28093     -58419.641      186.88526      186.40471      725.25471    
     72000  -58790.605      423.20305     -58367.402      186.87389      186.39424      725.52145    
     72100  -58738.705      427.56441     -58311.14       186.86395      186.38499      725.78818    
     72200  -58677.305      421.65171     -58255.653      186.85168      186.37313      726.05492    
     72300  -58635.721      434.42598     -58201.295      186.8417       186.3634       726.32166    
     72400  -58573.553      429.36143     -58144.191      186.83126      186.35314      726.58839    
     72500  -58521.164      432.42135     -58088.743      186.81963      186.34163      726.85513    
     72600  -58462.856      426.07889     -58036.777      186.81038      186.33251      727.12186    
[...]
     85400  -77427.583      375.06911     -77052.514      187.95943      187.35983      761.26405    
     85500  -77322.383      363.32413     -76959.058      187.97718      187.37751      761.53078    
     85600  -77207.381      348.8127      -76858.569      187.99461      187.39485      761.79752    
     85700  -77086.487      333.34665     -76753.14       188.01164      187.41131      762.06426    
     85800  -76965.841      320.95341     -76644.888      188.02873      187.42755      762.33099    
     85900  -76887.239      353.64114     -76533.598      188.04421      187.44233      762.59773    
     86000  -76902.421      470.79999     -76431.621      188.04432      187.4424       762.86446    
     86100  -76929.8        474.89964     -76454.9        188.03855      187.43618      763.1312     
     86200  -76982.274      409.92483     -76572.349      188.05467      187.45049      763.39794    
     86300  -77023.721      380.99125     -76642.73       188.06396      187.46035      763.66467    
     86400  -77051.853      394.26183     -76657.591      188.05904      187.45752      763.93141    
     86500  -77071.003      426.1913      -76644.812      188.07328      187.47512      764.19814    
     86600  -77078.93       421.25881     -76657.671      188.08085      187.49112      764.46488    
     86700  -77079.766      391.71395     -76688.052      188.08669      187.5014       764.73161    
     86800  -77106.705      411.88915     -76694.815      188.104        187.52198      764.99835    
     86900  -77120.178      419.657       -76700.521      188.12195      187.54393      765.26509    
     87000  -77141.951      421.31552     -76720.635      188.14844      187.56418      765.53182    
     87100  -77154.618      395.67129     -76758.946      188.159        187.5728       765.79856    
     87200  -77183.641      408.17352     -76775.467      188.17524      187.58663      766.06529    
     87300  -77209.845      415.81753     -76794.028      188.19494      187.60135      766.33203    
     87400  -77241.068      411.25949     -76829.809      188.21075      187.61648      766.59877    
     87500  -77261.941      397.14022     -76864.801      188.22537      187.63103      766.8655     
     87600  -77265.88       395.62476     -76870.255      188.2349       187.64244      767.13224    
     87700  -77259.348      412.4751      -76846.873      188.24717      187.65453      767.39897    
     87800  -77259.481      426.93445     -76832.547      188.25819      187.66594      767.66571    
     87900  -77266.622      413.31308     -76853.309      188.26719      187.6722       767.93244    
     88000  -77282.282      399.78686     -76882.495      188.27784      187.68356      768.19918    
     88100  -77301.53       408.30231     -76893.228      188.28832      187.69566      768.46592    
     88200  -77293.898      403.04423     -76890.854      188.30335      187.70943      768.73265    
     88300  -77295.448      413.24034     -76882.207      188.30722      187.71742      768.99939    
     88400  -77304.952      425.94321     -76879.009      188.32119      187.73148      769.26612    
     88500  -77312.503      417.7071      -76894.796      188.32956      187.73835      769.53286    
     88600  -77327.285      403.46182     -76923.823      188.34041      187.74478      769.7996     
     88700  -77332.27       399.27577     -76932.994      188.35632      187.75016      770.06633    
     88800  -77336.965      404.71543     -76932.249      188.37067      187.75515      770.33307    
     88900  -77340.705      417.42017     -76923.285      188.38899      187.76219      770.5998     
     89000  -77340.307      426.88754     -76913.42       188.41009      187.77225      770.86654    
     89100  -77369.23       414.78002     -76954.45       188.42997      187.79018      771.13327    
     89200  -77394.856      395.9769      -76998.879      188.43999      187.80138      771.40001    
     89300  -77410.547      394.53562     -77016.011      188.45275      187.81982      771.66675    
     89400  -77412.366      409.16216     -77003.204      188.46149      187.83686      771.93348    
     89500  -77409.88       424.2527      -76985.627      188.46875      187.85418      772.20022    
     89600  -77418.899      426.84615     -76992.053      188.47787      187.87584      772.46695    
     89700  -77443.555      412.83484     -77030.72       188.48556      187.90139      772.73369    
     89800  -77464.279      393.83662     -77070.442      188.49626      187.92529      773.00043    
     89900  -77473.611      393.99193     -77079.619      188.50288      187.94444      773.26716    
     90000  -77471.595      410.1244      -77061.47       188.51073      187.97022      773.5339     
     90100  -77476.712      428.56119     -77048.151      188.51453      187.9914       773.80063    
     90200  -77477.419      412.85106     -77064.568      188.52         188.01008      774.06737    
     90300  -77491.389      401.39217     -77089.997      188.52509      188.02881      774.3341     
     90400  -77502.117      399.16041     -77102.956      188.5329       188.05095      774.60084    
     90500  -77510.084      408.9484      -77101.136      188.54008      188.07207      774.86758    
     90600  -77518.066      416.51095     -77101.555      188.55039      188.09047      775.13431    
     90700  -77527.113      411.4159      -77115.697      188.55817      188.10359      775.40105    
     90800  -77533.342      402.47555     -77130.866      188.57157      188.11868      775.66778    
     90900  -77535.31       403.55729     -77131.753      188.5824       188.1268       775.93452    
     91000  -77523.286      405.25613     -77118.03       188.59614      188.1334       776.20126    
     91100  -77515.673      417.00525     -77098.668      188.61128      188.13682      776.46799    
     91200  -77494.856      404.61783     -77090.238      188.62692      188.13766      776.73473    
     91300  -77494.542      410.06108     -77084.481      188.64532      188.13606      777.00146    
     91400  -77486.936      409.23704     -77077.699      188.66605      188.13609      777.2682     
     91500  -77478.967      408.63712     -77070.33       188.6858       188.13727      777.53493    
     91600  -77465.455      405.42248     -77060.032      188.70358      188.13428      777.80167    
     91700  -77454.926      413.71068     -77041.215      188.7179       188.12888      778.06841    
     91800  -77447.191      419.99666     -77027.195      188.73763      188.12979      778.33514    
     91900  -77440.411      411.63641     -77028.775      188.74927      188.1262       778.60188    
     92000  -77448.189      408.81707     -77039.372      188.76575      188.12961      778.86861    
     92100  -77452.447      406.46398     -77045.983      188.77268      188.1323       779.13535    
     92200  -77455.602      410.03715     -77045.565      188.77993      188.14145      779.40209    
     92300  -77464.47       415.91127     -77048.559      188.78509      188.15501      779.66882    
     92400  -77478.018      411.26148     -77066.756      188.78451      188.1688       779.93556    
     92500  -77492.419      406.68631     -77085.733      188.78893      188.18686      780.20229    
     92600  -77504.391      409.95573     -77094.435      188.78824      188.20279      780.46903    
     92700  -77501.965      404.31768     -77097.647      188.78768      188.22154      780.73576    
     92800  -77507.032      412.46773     -77094.564      188.78702      188.24254      781.0025     
     92900  -77516.521      419.37427     -77097.147      188.78677      188.26281      781.26924    
     93000  -77527.267      412.88532     -77114.382      188.78801      188.28335      781.53597    
     93100  -77540.13       401.82431     -77138.305      188.78635      188.29928      781.80271    
     93200  -77549.11       398.7145      -77150.395      188.78937      188.31911      782.06944    
     93300  -77550.65       406.04616     -77144.604      188.79095      188.33363      782.33618    
     93400  -77539.798      409.6663      -77130.132      188.79542      188.35057      782.60291    
     93500  -77537.864      415.07496     -77122.789      188.79705      188.362        782.86965    
     93600  -77534.732      407.14865     -77127.583      188.80024      188.37276      783.13639    
     93700  -77530.906      401.33105     -77129.575      188.80424      188.38846      783.40312    
     93800  -77517.434      402.02087     -77115.413      188.80899      188.39937      783.66986    
     93900  -77501.99       410.77123     -77091.219      188.81453      188.41154      783.93659    
     94000  -77487.726      415.58738     -77072.139      188.82166      188.42168      784.20333    
     94100  -77467.294      406.49557     -77060.799      188.82948      188.42997      784.47007    
     94200  -77453.082      405.29767     -77047.784      188.83973      188.4365       784.7368     
     94300  -77436.489      407.70837     -77028.781      188.84829      188.4385       785.00354    
     94400  -77420.907      410.41402     -77010.493      188.86201      188.44617      785.27027    
     94500  -77420.976      419.5684      -77001.408      188.875        188.44934      785.53701    
     94600  -77416.418      407.55217     -77008.866      188.89343      188.4554       785.80374    
     94700  -77419.032      404.87888     -77014.153      188.90683      188.45847      786.07048    
     94800  -77415.147      405.84239     -77009.305      188.92428      188.46791      786.33722    
     94900  -77409.991      411.55599     -76998.435      188.93954      188.47376      786.60395    
     95000  -77412.338      418.63102     -76993.707      188.95491      188.47904      786.87069    
     95100  -77420.516      415.61642     -77004.9        188.9764       188.4874       787.13742    
     95200  -77436.633      407.28315     -77029.349      188.99518      188.49214      787.40416    
     95300  -77452.796      398.90273     -77053.894      189.01438      188.49759      787.6709     
     95400  -77465.386      398.84913     -77066.537      189.0295       188.50086      787.93763    
     95500  -77477.699      413.9026      -77063.796      189.04564      188.50725      788.20437    
     95600  -77479.642      417.74322     -77061.899      189.05799      188.51498      788.4711     
     95700  -77486.801      414.83429     -77071.967      189.06903      188.52624      788.73784    
     95800  -77495.794      407.62929     -77088.165      189.07745      188.53653      789.00457    
     95900  -77498.589      399.10624     -77099.482      189.0838       188.54835      789.27131    
     96000  -77508.469      409.03359     -77099.435      189.08703      188.56323      789.53805    
     96100  -77501.766      407.97375     -77093.792      189.08953      188.58004      789.80478    
     96200  -77500.947      415.02621     -77085.921      189.08856      188.59497      790.07152    
     96300  -77492.604      412.82792     -77079.776      189.08756      188.61322      790.33825    
     96400  -77488.341      409.00348     -77079.338      189.07854      188.62766      790.60499    
     96500  -77484.833      402.64642     -77082.186      189.07146      188.64518      790.87173    
     96600  -77481.422      404.20595     -77077.216      189.06022      188.65747      791.13846    
     96700  -77468.917      407.40224     -77061.515      189.05357      188.67499      791.4052     
     96800  -77461.196      420.25801     -77040.938      189.03977      188.68679      791.67193    
     96900  -77448.717      418.41452     -77030.302      189.02706      188.69777      791.93867    
     97000  -77449.085      414.26635     -77034.819      189.01518      188.71043      792.2054     
     97100  -77453.938      407.8844      -77046.053      189.00239      188.72154      792.47214    
     97200  -77452.974      402.79072     -77050.184      188.99118      188.73235      792.73888    
     97300  -77448.537      404.33857     -77044.198      188.98026      188.73976      793.00561    
     97400  -77448.497      410.90108     -77037.596      188.97099      188.7443       793.27235    
     97500  -77450.014      413.53397     -77036.48       188.96259      188.74636      793.53908    
     97600  -77460.085      416.05128     -77044.033      188.95779      188.74589      793.80582    
     97700  -77471.766      409.32178     -77062.445      188.95948      188.74736      794.07256    
     97800  -77489.944      407.43406     -77082.51       188.96109      188.74352      794.33929    
     97900  -77499.868      405.11182     -77094.756      188.96692      188.74058      794.60603    
     98000  -77507.714      410.92272     -77096.791      188.97447      188.73334      794.87276    
     98100  -77511.099      410.16353     -77100.935      188.98859      188.73041      795.1395     
     98200  -77525.264      412.68687     -77112.577      189.00239      188.72463      795.40623    
     98300  -77538.861      408.43449     -77130.427      189.01816      188.72019      795.67297    
     98400  -77549.407      404.33954     -77145.068      189.03449      188.71523      795.93971    
     98500  -77556.276      406.75629     -77149.52       189.05006      188.71057      796.20644    
     98600  -77558.492      409.77071     -77148.722      189.06534      188.70732      796.47318    
     98700  -77560.07       411.34142     -77148.729      189.07851      188.70311      796.73991    
     98800  -77559.621      409.64505     -77149.976      189.09438      188.70089      797.00665    
     98900  -77558.525      407.35808     -77151.167      189.10889      188.69934      797.27339    
     99000  -77556.111      407.2981      -77148.813      189.12097      188.69942      797.54012    
     99100  -77545.865      404.40846     -77141.457      189.13126      188.70135      797.80686    
     99200  -77535.186      405.82204     -77129.364      189.1395       188.70585      798.07359    
     99300  -77522.222      409.11103     -77113.111      189.14394      188.71306      798.34033    
     99400  -77510.096      411.95652     -77098.139      189.14978      188.72592      798.60706    
     99500  -77504.013      414.53332     -77089.48       189.15228      188.73803      798.8738     
     99600  -77488.539      403.29552     -77085.244      189.15517      188.75371      799.14054    
     99700  -77484.255      407.81119     -77076.444      189.15306      188.76841      799.40727    
     99800  -77468.559      408.82999     -77059.729      189.15131      188.78731      799.67401    
     99900  -77456.585      417.29352     -77039.292      189.14539      188.80652      799.94074    
    100000  -77442.748      414.3319      -77028.416      189.13945      188.82836      800.20748    
    100100  -77443.229      414.25395     -77028.975      189.13176      188.8524       800.47422    
    100200  -77443.719      405.0555      -77038.664      189.12355      188.87201      800.74095    
    100300  -77448.598      405.23354     -77043.365      189.11678      188.89145      801.00769    
    100400  -77442.7        406.31749     -77036.382      189.11188      188.90711      801.27442    
    100500  -77435.631      412.70655     -77022.925      189.1097       188.92166      801.54116    
    100600  -77434.632      417.95218     -77016.68       189.11064      188.93407      801.80789    
    100700  -77440.309      415.84581     -77024.463      189.11411      188.94464      802.07463    
    100800  -77450.514      407.8951      -77042.619      189.12074      188.95724      802.34137    
    100900  -77452.174      396.0966      -77056.077      189.1266       188.96143      802.6081     
    101000  -77451.895      400.41369     -77051.481      189.13677      188.96813      802.87484    
    101100  -77447.742      415.75334     -77031.989      189.14878      188.97048      803.14157    
    101200  -77438.728      419.33633     -77019.392      189.163        188.97249      803.40831    
    101300  -77444.68       416.72311     -77027.957      189.17558      188.9691       803.67505    

===================================================================================
=   BAD TERMINATION OF ONE OF YOUR APPLICATION PROCESSES
=   RANK 0 PID 1067147 RUNNING AT amax
=   KILLED BY SIGNAL: 15 (Terminated)
===================================================================================

===================================================================================
=   BAD TERMINATION OF ONE OF YOUR APPLICATION PROCESSES
=   RANK 1 PID 1067148 RUNNING AT amax
=   KILLED BY SIGNAL: 15 (Terminated)
===================================================================================

===================================================================================
=   BAD TERMINATION OF ONE OF YOUR APPLICATION PROCESSES
=   RANK 2 PID 1067149 RUNNING AT amax
=   KILLED BY SIGNAL: 15 (Terminated)
===================================================================================

===================================================================================
=   BAD TERMINATION OF ONE OF YOUR APPLICATION PROCESSES
=   RANK 3 PID 1067150 RUNNING AT amax
=   KILLED BY SIGNAL: 15 (Terminated)
===================================================================================

===================================================================================
=   BAD TERMINATION OF ONE OF YOUR APPLICATION PROCESSES
=   RANK 4 PID 1067151 RUNNING AT amax
=   KILLED BY SIGNAL: 15 (Terminated)
===================================================================================

===================================================================================
=   BAD TERMINATION OF ONE OF YOUR APPLICATION PROCESSES
=   RANK 5 PID 1067152 RUNNING AT amax
=   KILLED BY SIGNAL: 15 (Terminated)
===================================================================================

===================================================================================
=   BAD TERMINATION OF ONE OF YOUR APPLICATION PROCESSES
=   RANK 6 PID 1067153 RUNNING AT amax
=   KILLED BY SIGNAL: 15 (Terminated)
===================================================================================

===================================================================================
=   BAD TERMINATION OF ONE OF YOUR APPLICATION PROCESSES
=   RANK 7 PID 1067154 RUNNING AT amax
=   KILLED BY SIGNAL: 15 (Terminated)
===================================================================================

===================================================================================
=   BAD TERMINATION OF ONE OF YOUR APPLICATION PROCESSES
=   RANK 8 PID 1067155 RUNNING AT amax
=   KILLED BY SIGNAL: 15 (Terminated)
===================================================================================

===================================================================================
=   BAD TERMINATION OF ONE OF YOUR APPLICATION PROCESSES
=   RANK 9 PID 1067156 RUNNING AT amax
=   KILLED BY SIGNAL: 15 (Terminated)
===================================================================================

===================================================================================
=   BAD TERMINATION OF ONE OF YOUR APPLICATION PROCESSES
=   RANK 10 PID 1067157 RUNNING AT amax
=   KILLED BY SIGNAL: 15 (Terminated)
===================================================================================

===================================================================================
=   BAD TERMINATION OF ONE OF YOUR APPLICATION PROCESSES
=   RANK 11 PID 1067158 RUNNING AT amax
=   KILLED BY SIGNAL: 15 (Terminated)
===================================================================================
