LAMMPS (2 Aug 2023 - Update 3)
OMP_NUM_THREADS environment is not set. Defaulting to 1 thread. (src/comm.cpp:98)
  using 1 OpenMP thread(s) per MPI task
Reading data file ...
  orthogonal box = (-100 -100 -2.3312515) to (100 100 46.166171)
  4 by 4 by 1 MPI processor grid
  reading atoms ...
  1320 atoms
  read_data CPU = 0.007 seconds
Replication is creating a 1x1x15 = 15 times larger system...
  orthogonal box = (-100 -100 -2.3312515) to (100 100 725.13009)
  2 by 2 by 4 MPI processor grid
  19800 atoms
  replicate CPU = 0.002 seconds
System init for write_data ...
WARNING: Communication cutoff is 0.0. No ghost atoms will be generated. Atoms may get lost. (src/comm_brick.cpp:210)
Reading airebo potential file CH.airebo with DATE: 2011-10-25
Reading airebo potential file CH.airebo with DATE: 2011-10-25
Reading airebo potential file CH.airebo with DATE: 2011-10-25
Neighbor list info ...
  update: every = 1 steps, delay = 0 steps, check = yes
  max neighbors/atom: 2000, page size: 100000
  master list distance cutoff = 13.2
  ghost atom cutoff = 13.2
  binsize = 6.6, bins = 31 31 111
  6 neighbor lists, perpetual/occasional/extra = 6 0 0
  (1) pair airebo, perpetual, skip from (5)
      attributes: full, newton on, ghost
      pair build: skip/ghost
      stencil: none
      bin: none
  (2) pair airebo, perpetual, skip from (5)
      attributes: full, newton on, ghost
      pair build: skip/ghost
      stencil: none
      bin: none
  (3) pair airebo, perpetual, skip from (5)
      attributes: full, newton on, ghost
      pair build: skip/ghost
      stencil: none
      bin: none
  (4) pair lj/cut, perpetual, skip from (6)
      attributes: half, newton on, cut 13
      pair build: skip
      stencil: none
      bin: none
  (5) neighbor class addition, perpetual
      attributes: full, newton on, ghost
      pair build: full/bin/ghost
      stencil: full/ghost/bin/3d
      bin: standard
  (6) neighbor class addition, perpetual
      attributes: half, newton on, cut 13
      pair build: half/bin/atomonly/newton
      stencil: half/bin/3d
      bin: standard
Setting up sd style minimization ...
  Unit style    : metal
  Current step  : 0
Per MPI rank memory allocation (min/avg/max) = 15.01 | 15.01 | 15.02 Mbytes
   Step          Temp          E_pair         E_mol          TotEng         Press     
         0   0             -121015.42      0             -121015.42      5481.8219    
        30   0             -143153         0             -143153         34.778352    
Loop time of 1.17495 on 16 procs for 30 steps with 19800 atoms

98.1% CPU use with 16 MPI tasks x 1 OpenMP threads

Minimization stats:
  Stopping criterion = energy tolerance
  Energy initial, next-to-last, final = 
     -121015.417620709  -143143.861076106  -143152.997044911
  Force two-norm initial, final = 7618.4553 38.313315
  Force max component initial, final = 534.82797 1.9411106
  Final line search alpha, max atom move = 0.051917894 0.10077838
  Iterations, force evaluations = 30 54

MPI task timing breakdown:
Section |  min time  |  avg time  |  max time  |%varavg| %total
---------------------------------------------------------------
Pair    | 1.054      | 1.0956     | 1.1482     |   2.6 | 93.24
Neigh   | 0          | 0          | 0          |   0.0 |  0.00
Comm    | 0.021722   | 0.071136   | 0.11481    |  10.1 |  6.05
Output  | 0          | 0          | 0          |   0.0 |  0.00
Modify  | 0          | 0          | 0          |   0.0 |  0.00
Other   |            | 0.008262   |            |       |  0.70

Nlocal:         1237.5 ave        1320 max        1158 min
Histogram: 4 0 0 0 6 2 0 0 0 4
Nghost:        4414.75 ave        4499 max        4330 min
Histogram: 3 1 0 0 3 5 0 0 1 3
Neighs:              0 ave           0 max           0 min
Histogram: 16 0 0 0 0 0 0 0 0 0

Total # of neighbors = 0
Ave neighs/atom = 0
Neighbor list builds = 0
Dangerous builds = 0
Setting up Verlet run ...
  Unit style    : metal
  Current step  : 30
  Time step     : 0.001
Per MPI rank memory allocation (min/avg/max) = 15.64 | 15.69 | 16.02 Mbytes
   Step          Temp          E_pair         E_mol          TotEng         Press          Volume    
        30   300           -143153         0             -142385.23      62.960775      29098454     
Loop time of 2.21401e-05 on 16 procs for 0 steps with 19800 atoms

90.3% CPU use with 16 MPI tasks x 1 OpenMP threads

MPI task timing breakdown:
Section |  min time  |  avg time  |  max time  |%varavg| %total
---------------------------------------------------------------
Pair    | 0          | 0          | 0          |   0.0 |  0.00
Neigh   | 0          | 0          | 0          |   0.0 |  0.00
Comm    | 0          | 0          | 0          |   0.0 |  0.00
Output  | 0          | 0          | 0          |   0.0 |  0.00
Modify  | 0          | 0          | 0          |   0.0 |  0.00
Other   |            | 2.214e-05  |            |       |100.00

Nlocal:         1237.5 ave        1249 max        1224 min
Histogram: 1 0 2 1 3 2 4 0 1 2
Nghost:           4414 ave        4427 max        4395 min
Histogram: 2 1 0 1 0 2 4 4 0 2
Neighs:              0 ave           0 max           0 min
Histogram: 16 0 0 0 0 0 0 0 0 0

Total # of neighbors = 0
Ave neighs/atom = 0
Neighbor list builds = 0
Dangerous builds = 0
WARNING: Dump 2 includes no atom IDs and is not sorted by ID. This may complicate post-processing tasks or visualization (src/dump.cpp:221)
Setting up Verlet run ...
  Unit style    : metal
  Current step  : 0
  Time step     : 0.001
Per MPI rank memory allocation (min/avg/max) = 17.14 | 17.19 | 17.52 Mbytes
   Step         PotEng         KinEng         TotEng           Lx             Ly             Lz      
         0  -143153         767.76648     -142385.23      200            200            727.46134    
       100  -143149.76      806.43715     -142343.32      200.02875      199.93693      727.82508    
       200  -143062.94      682.97436     -142379.96      200.03507      199.80966      728.18881    
       300  -142891.33      557.14227     -142334.18      200.14591      199.74462      728.55254    
       400  -142953.77      677.37384     -142276.4       200.16647      199.66269      728.91627    
       500  -143034.58      772.37657     -142262.2       200.23265      199.68782      729.28       
       600  -142956.53      672.62038     -142283.9       200.20958      199.72763      729.64373    
       700  -143045.88      809.69722     -142236.18      200.1802       199.79643      730.00746    
       800  -143067.52      803.45862     -142264.06      200.01556      199.81527      730.37119    
       900  -143032.58      736.64195     -142295.94      199.97264      199.88054      730.73492    
      1000  -142991.97      729.61772     -142262.35      199.94466      199.92732      731.09865    
      1100  -142935.05      721.9345      -142213.11      199.90222      199.93908      731.46238    
      1200  -142957.96      790.77699     -142167.18      199.93112      199.97257      731.82611    
      1300  -143014.04      832.05776     -142181.99      199.95482      199.93597      732.18984    
      1400  -143015.62      785.10565     -142230.51      199.96953      199.8606       732.55357    
      1500  -143040.74      775.89083     -142264.85      200.00827      199.78709      732.91731    
      1600  -143023.52      737.76533     -142285.76      200.07668      199.75531      733.28104    
      1700  -142970.38      717.2274      -142253.15      200.06034      199.75351      733.64477    
      1800  -142999.74      798.03912     -142201.7       200.01528      199.79226      734.0085     
      1900  -143015.32      799.52757     -142215.8       199.97526      199.8507       734.37223    
      2000  -142981.82      737.44855     -142244.37      199.90332      199.87686      734.73596    
      2100  -142984.91      754.85897     -142230.05      199.89271      199.90803      735.09969    
      2200  -142956.51      759.03646     -142197.47      199.88316      199.90439      735.46342    
      2300  -142938.61      776.69291     -142161.92      199.88913      199.88198      735.82715    
      2400  -142943.22      796.80299     -142146.42      199.91712      199.85999      736.19088    
      2500  -142962.83      785.10724     -142177.72      199.94066      199.82003      736.55461    
      2600  -142968.41      760.91512     -142207.5       199.96991      199.78188      736.91834    
      2700  -142972.21      751.38759     -142220.83      199.9866       199.75166      737.28207    
      2800  -142944.83      741.06439     -142203.76      199.99603      199.74642      737.6458     
      2900  -142946.02      781.21186     -142164.81      199.96951      199.76047      738.00953    
      3000  -142940.92      785.67732     -142155.25      199.92861      199.79348      738.37327    
      3100  -142935.07      760.22716     -142174.84      199.89237      199.82577      738.737      
      3200  -142935.3       758.43317     -142176.86      199.8662       199.84107      739.10073    
      3300  -142908.74      756.2795      -142152.46      199.86736      199.84573      739.46446    
      3400  -142887.08      765.92469     -142121.16      199.86905      199.82207      739.82819    
      3500  -142884.22      781.47354     -142102.75      199.89576      199.8018       740.19192    
      3600  -142899.01      786.50983     -142112.5       199.90355      199.76829      740.55565    
      3700  -142896.53      761.39747     -142135.13      199.92334      199.74576      740.91938    
      3800  -142899.35      759.52158     -142139.83      199.93514      199.73115      741.28311    
      3900  -142889.17      759.79        -142129.38      199.93174      199.72428      741.64684    
      4000  -142880.5       771.12533     -142109.38      199.92212      199.7321       742.01057    
      4100  -142877.39      780.63124     -142096.76      199.89422      199.74178      742.3743     
      4200  -142864         765.7204      -142098.28      199.87389      199.76093      742.73803    
      4300  -142864.16      764.88939     -142099.27      199.85288      199.76847      743.10176    
      4400  -142844.61      752.16777     -142092.44      199.85052      199.77501      743.46549    
      4500  -142820.79      755.54619     -142065.24      199.84573      199.76619      743.82923    
      4600  -142817.75      782.1971      -142035.55      199.85132      199.75172      744.19296    
      4700  -142800.61      771.87267     -142028.73      199.86131      199.7334       744.55669    
      4800  -142810.28      772.36228     -142037.92      199.86507      199.71043      744.92042    
      4900  -142807.76      760.77126     -142046.99      199.87857      199.6992       745.28415    
      5000  -142802.65      759.396       -142043.25      199.87672      199.68884      745.64788    
      5100  -142792.12      765.88597     -142026.23      199.87425      199.68974      746.01161    
      5200  -142782.7       774.87914     -142007.82      199.86141      199.68781      746.37534    
      5300  -142775.17      771.54664     -142003.63      199.8489       199.69002      746.73907    
      5400  -142763.3       761.72807     -142001.57      199.83794      199.691        747.1028     
      5500  -142755.35      764.47732     -141990.87      199.8307       199.68977      747.46653    
      5600  -142733.49      761.32952     -141972.16      199.82805      199.68952      747.83026    
      5700  -142713.73      761.68995     -141952.04      199.82218      199.68137      748.19399    
      5800  -142718.64      780.21404     -141938.43      199.8223       199.6727       748.55772    
      5900  -142709.09      766.98941     -141942.1       199.81961      199.65959      748.92145    
      6000  -142707.93      765.47427     -141942.46      199.82165      199.64919      749.28519    
      6100  -142698.67      762.06749     -141936.6       199.82088      199.64124      749.64892    
      6200  -142691.42      766.55561     -141924.86      199.81624      199.63455      750.01265    
      6300  -142669.43      764.08064     -141905.35      199.81287      199.63204      750.37638    
      6400  -142664.14      778.20941     -141885.93      199.80086      199.62429      750.74011    
      6500  -142647.37      768.47768     -141878.9       199.79815      199.62314      751.10384    
      6600  -142642.39      768.99501     -141873.39      199.78817      199.61761      751.46757    
      6700  -142625.27      760.77886     -141864.49      199.77986      199.61651      751.8313     
      6800  -142620.25      770.16866     -141850.08      199.77035      199.6157       752.19503    
      6900  -142605.29      771.55788     -141833.73      199.76145      199.61219      752.55876    
      7000  -142593.21      772.87248     -141820.33      199.75765      199.60605      752.92249    
      7100  -142581.64      764.37348     -141817.27      199.7544       199.5938       753.28622    
      7200  -142578.5       767.23527     -141811.26      199.75684      199.58302      753.64995    
      7300  -142562.82      766.86782     -141795.95      199.75334      199.56961      754.01368    
      7400  -142550.06      768.5267      -141781.54      199.751        199.5618       754.37741    
      7500  -142540.07      770.09993     -141769.97      199.7452       199.55592      754.74115    
      7600  -142526.97      773.26691     -141753.7       199.73548      199.55124      755.10488    
      7700  -142505.66      769.06075     -141736.6       199.7275       199.54943      755.46861    
      7800  -142495.69      771.58468     -141724.1       199.71439      199.54755      755.83234    
      7900  -142479.59      762.12156     -141717.47      199.70208      199.54792      756.19607    
      8000  -142476.28      768.29897     -141707.98      199.68934      199.54419      756.5598     
      8100  -142465.95      768.37661     -141697.58      199.68395      199.53703      756.92353    
      8200  -142443.82      762.19596     -141681.63      199.68219      199.52449      757.28726    
      8300  -142432.6       771.46386     -141661.14      199.68434      199.50992      757.65099    
      8400  -142412.92      769.31889     -141643.6       199.68454      199.49444      758.01472    
      8500  -142402.16      774.13378     -141628.02      199.67936      199.48272      758.37845    
      8600  -142394.13      772.82494     -141621.31      199.67342      199.4761       758.74218    
      8700  -142379.77      763.18786     -141616.58      199.66229      199.47228      759.10591    
      8800  -142362.26      761.0457      -141601.22      199.64891      199.46948      759.46964    
      8900  -142346.82      767.52489     -141579.3       199.63911      199.46823      759.83337    
      9000  -142331.12      771.0032      -141560.12      199.62553      199.46309      760.19711    
      9100  -142317.24      768.46443     -141548.77      199.61748      199.45621      760.56084    
      9200  -142311.12      763.87591     -141547.24      199.61175      199.44548      760.92457    
      9300  -142296.39      762.34942     -141534.04      199.60667      199.43245      761.2883     
      9400  -142278.72      768.20301     -141510.52      199.60697      199.4204       761.65203    
      9500  -142262.88      771.39973     -141491.48      199.60079      199.40611      762.01576    
      9600  -142242.62      769.40914     -141473.21      199.59626      199.39524      762.37949    
      9700  -142226.9       775.74625     -141451.16      199.58718      199.38708      762.74322    
      9800  -142208.66      777.02851     -141431.63      199.57328      199.38166      763.10695    
      9900  -142192.54      765.44345     -141427.1       199.56151      199.37944      763.47068    
     10000  -142185.69      767.58281     -141418.11      199.54712      199.37436      763.83441    
     10100  -142168.68      763.91831     -141404.77      199.53838      199.36688      764.19814    
     10200  -142152.4       765.79791     -141386.6       199.5316       199.35467      764.56187    
     10300  -142130.76      770.0174      -141360.74      199.52655      199.34041      764.9256     
     10400  -142112.7       773.13758     -141339.56      199.52281      199.32653      765.28933    
     10500  -142099.16      772.17177     -141326.99      199.51622      199.314        765.65307    
     10600  -142087.27      766.11393     -141321.15      199.50656      199.30259      766.0168     
     10700  -142069.69      763.56943     -141306.12      199.49805      199.29404      766.38053    
     10800  -142051.59      766.86507     -141284.73      199.48529      199.28584      766.74426    
     10900  -142034.14      771.89776     -141262.25      199.47386      199.27963      767.10799    
     11000  -142015.74      772.7484      -141243         199.45967      199.2744       767.47172    
     11100  -141995.13      763.61185     -141231.52      199.44537      199.26838      767.83545    
     11200  -141985.09      762.86208     -141222.23      199.43226      199.26103      768.19918    
     11300  -141965.42      763.84716     -141201.57      199.42008      199.25024      768.56291    
     11400  -141941.43      768.58669     -141172.85      199.4132       199.23905      768.92664    
     11500  -141925.71      772.54377     -141153.16      199.40455      199.22595      769.29037    
     11600  -141909.49      767.97526     -141141.51      199.39775      199.2139       769.6541     
     11700  -141893.81      766.70761     -141127.1       199.38728      199.20067      770.01783    
     11800  -141875.73      769.01693     -141106.72      199.37741      199.18918      770.38156    
     11900  -141856.49      775.85808     -141080.64      199.3669       199.17897      770.7453     
     12000  -141830.15      774.13921     -141056.01      199.35527      199.16961      771.10903    
     12100  -141812.66      771.67316     -141040.98      199.34352      199.16205      771.47276    
     12200  -141798.62      765.07556     -141033.54      199.3276       199.15308      771.83649    
     12300  -141780.17      764.06298     -141016.11      199.3128       199.14524      772.20022    
     12400  -141761.44      767.46718     -140993.97      199.29834      199.13559      772.56395    
     12500  -141735.69      765.87452     -140969.82      199.28663      199.12551      772.92768    
     12600  -141718.93      776.72975     -140942.2       199.27615      199.11351      773.29141    
     12700  -141692.67      778.69291     -140913.98      199.26625      199.1009       773.65514    
     12800  -141671.79      768.62773     -140903.16      199.25582      199.08855      774.01887    
     12900  -141659.99      769.86309     -140890.13      199.24196      199.07536      774.3826     
     13000  -141645.39      769.23446     -140876.15      199.23006      199.06655      774.74633    
     13100  -141614.85      759.20698     -140855.65      199.21184      199.05591      775.11006    
     13200  -141599.38      772.65919     -140826.72      199.19787      199.05006      775.47379    
     13300  -141581.45      778.61842     -140802.84      199.18015      199.04054      775.83752    
     13400  -141563.81      766.79464     -140797.01      199.16475      199.03118      776.20126    
     13500  -141542.08      762.86631     -140779.22      199.15266      199.02106      776.56499    
     13600  -141515.58      763.5564      -140752.02      199.13848      199.00657      776.92872    
     13700  -141493.96      770.18159     -140723.78      199.12884      198.99341      777.29245    
     13800  -141469.26      768.1656      -140701.09      199.11619      198.97666      777.65618    
     13900  -141451.38      766.78346     -140684.59      199.10529      198.96265      778.01991    
     14000  -141442.18      766.83522     -140675.34      199.09378      198.94807      778.38364    
     14100  -141416.72      761.42707     -140655.3       199.08147      198.93485      778.74737    
     14200  -141384.5       758.29513     -140626.2       199.06634      198.92247      779.1111     
     14300  -141369.07      769.74762     -140599.32      199.04973      198.9104       779.47483    
     14400  -141346.69      768.04492     -140578.65      199.03389      198.90007      779.83856    
     14500  -141331.1       769.78196     -140561.31      199.01634      198.88826      780.20229    
     14600  -141310.03      761.93987     -140548.09      199.00156      198.87809      780.56602    
     14700  -141301.42      768.01758     -140533.4       198.98589      198.86534      780.92975    
     14800  -141262.3       761.29738     -140501         198.97233      198.85269      781.29348    
     14900  -141235.28      765.41331     -140469.87      198.95865      198.83769      781.65722    
     15000  -141216.38      772.26702     -140444.11      198.94426      198.82089      782.02095    
     15100  -141193.83      771.91993     -140421.91      198.93141      198.80467      782.38468    
     15200  -141169.31      766.52192     -140402.79      198.9171       198.78921      782.74841    
     15300  -141150.29      764.43236     -140385.86      198.90169      198.77677      783.11214    
     15400  -141126.46      760.20341     -140366.26      198.88304      198.76472      783.47587    
     15500  -141100.4       765.89723     -140334.5       198.86566      198.75495      783.8396     
     15600  -141074.38      770.28283     -140304.1       198.84622      198.74279      784.20333    
     15700  -141051.27      765.94764     -140285.32      198.82954      198.73007      784.56706    
     15800  -141040.48      771.32134     -140269.16      198.81336      198.71414      784.93079    
     15900  -141010.57      763.47221     -140247.1       198.79922      198.69734      785.29452    
     16000  -140987.01      767.15283     -140219.86      198.78596      198.68141      785.65825    
     16100  -140957.98      767.73493     -140190.25      198.76993      198.66554      786.02198    
     16200  -140937.14      772.86534     -140164.27      198.75449      198.65228      786.38571    
     16300  -140915.59      773.65734     -140141.93      198.73518      198.63727      786.74944    
     16400  -140895.64      775.27577     -140120.37      198.71752      198.62439      787.11318    
     16500  -140863.23      762.54956     -140100.68      198.69836      198.61088      787.47691    
     16600  -140849.81      766.08912     -140083.72      198.67867      198.59811      787.84064    
     16700  -140822.25      760.70017     -140061.55      198.66088      198.58529      788.20437    
     16800  -140790.38      765.3963      -140024.98      198.64324      198.57129      788.5681     
     16900  -140760         765.13266     -139994.86      198.62535      198.55666      788.93183    
     17000  -140744.94      774.56999     -139970.37      198.60819      198.54156      789.29556    
     17100  -140715.86      767.26578     -139948.59      198.58982      198.52513      789.65929    
     17200  -140695.09      764.3427      -139930.75      198.57228      198.50802      790.02302    
     17300  -140669.96      762.05607     -139907.91      198.55646      198.4928       790.38675    
     17400  -140642.43      770.0243      -139872.41      198.53851      198.47593      790.75048    
     17500  -140613.16      771.62268     -139841.53      198.52206      198.46161      791.11421    
     17600  -140586.79      769.92922     -139816.87      198.50231      198.44688      791.47794    
     17700  -140566.05      768.75919     -139797.29      198.48261      198.43228      791.84167    
     17800  -140539.56      760.2301      -139779.33      198.46192      198.41931      792.2054     
     17900  -140521.8       757.82985     -139763.97      198.43889      198.40549      792.56914    
     18000  -140489.45      755.67605     -139733.78      198.41793      198.3935       792.93287    
     18100  -140461.97      765.58682     -139696.38      198.39671      198.37905      793.2966     
     18200  -140433.36      769.29901     -139664.06      198.37841      198.36486      793.66033    
     18300  -140405.32      773.42245     -139631.89      198.35975      198.34826      794.02406    
     18400  -140373.4       767.11863     -139606.28      198.34134      198.3305       794.38779    
     18500  -140354.66      765.43092     -139589.23      198.32359      198.31397      794.75152    
     18600  -140333.62      766.46286     -139567.16      198.30382      198.29731      795.11525    
     18700  -140302.38      764.07077     -139538.31      198.28348      198.28302      795.47898    
     18800  -140275.95      769.26744     -139506.68      198.25991      198.26874      795.84271    
     18900  -140247.16      770.39713     -139476.76      198.23743      198.25653      796.20644    
     19000  -140224.02      773.46329     -139450.56      198.21504      198.24431      796.57017    
     19100  -140193.9       767.79139     -139426.1       198.19305      198.23105      796.9339     
     19200  -140165.48      762.7542      -139402.72      198.17172      198.21747      797.29763    
     19300  -140141.48      765.35713     -139376.13      198.1496       198.20265      797.66136    
     19400  -140105.45      765.88105     -139339.57      198.1287       198.18799      798.0251     
     19500  -140084.15      776.74469     -139307.4       198.10628      198.17204      798.38883    
     19600  -140046.59      762.3258      -139284.26      198.08635      198.15708      798.75256    
     19700  -140029.55      765.10867     -139264.44      198.06659      198.14076      799.11629    
     19800  -140004.31      764.66141     -139239.65      198.04792      198.12426      799.48002    
     19900  -139967.5       766.52357     -139200.98      198.02907      198.10824      799.84375    
     20000  -139943.37      777.55988     -139165.81      198.00717      198.09123      800.20748    
     20100  -139910.97      769.22384     -139141.75      197.98671      198.0771       800.57121    
     20200  -139885.91      762.63197     -139123.28      197.9645       198.06125      800.93494    
     20300  -139861.6       764.78855     -139096.81      197.94324      198.04624      801.29867    
     20400  -139832.48      768.86543     -139063.61      197.92412      198.03141      801.6624     
     20500  -139792.53      767.06275     -139025.47      197.90297      198.01543      802.02613    
     20600  -139772.36      775.67959     -138996.68      197.88422      198.00001      802.38986    
     20700  -139737.93      766.89493     -138971.04      197.86411      197.98241      802.75359    
     20800  -139712.8       765.53818     -138947.26      197.84632      197.9642       803.11732    
     20900  -139687.46      764.86143     -138922.6       197.82859      197.9461       803.48106    
     21000  -139660.32      760.69807     -138899.62      197.80981      197.92723      803.84479    
     21100  -139631.91      756.22808     -138875.68      197.79087      197.91099      804.20852    
     21200  -139600.29      763.56995     -138836.72      197.76963      197.8957       804.57225    
     21300  -139569.68      769.44076     -138800.24      197.74978      197.88185      804.93598    
     21400  -139539.53      773.01256     -138766.52      197.72873      197.86777      805.29971    
     21500  -139502.34      767.80026     -138734.54      197.70697      197.85295      805.66344    
     21600  -139474.54      769.21144     -138705.33      197.68656      197.8387       806.02717    
     21700  -139443.5       762.03364     -138681.47      197.66451      197.82155      806.3909     
     21800  -139418.93      760.29639     -138658.64      197.64573      197.80683      806.75463    
     21900  -139390.36      764.28156     -138626.08      197.62513      197.79091      807.11836    
     22000  -139358.83      772.99734     -138585.84      197.60462      197.77506      807.48209    
     22100  -139328.49      774.32939     -138554.16      197.58543      197.7612       807.84582    
     22200  -139296.02      769.41235     -138526.61      197.56272      197.74481      808.20955    
     22300  -139268.78      765.24979     -138503.53      197.54322      197.73264      808.57328    
     22400  -139240.7       761.10701     -138479.59      197.52006      197.71822      808.93702    
     22500  -139207.4       760.67591     -138446.72      197.49935      197.7043       809.30075    
     22600  -139175.42      771.51472     -138403.9       197.47985      197.68932      809.66448    
     22700  -139146.45      774.94248     -138371.51      197.46094      197.67226      810.02821    
     22800  -139112.37      768.74642     -138343.63      197.44351      197.65575      810.39194    
     22900  -139083.49      764.42856     -138319.07      197.42446      197.63803      810.75567    
     23000  -139053.27      758.72514     -138294.55      197.40628      197.62191      811.1194     
     23100  -139019.28      763.30943     -138255.98      197.38682      197.60585      811.48313    
     23200  -138986.98      771.48954     -138215.49      197.3684       197.5915       811.84686    
     23300  -138949.62      766.18384     -138183.43      197.34891      197.5767       812.21059    
     23400  -138924.84      770.02881     -138154.81      197.32881      197.56159      812.57432    
     23500  -138897.12      767.54594     -138129.57      197.30988      197.54709      812.93805    
     23600  -138868.99      764.8041      -138104.19      197.29048      197.53149      813.30178    
     23700  -138832.21      764.11847     -138068.09      197.27248      197.51619      813.66551    
     23800  -138793.25      767.76424     -138025.49      197.2549       197.5015       814.02925    
     23900  -138756.09      763.46344     -137992.63      197.23608      197.48528      814.39298    
     24000  -138733.59      769.77774     -137963.82      197.2175       197.47014      814.75671    
     24100  -138707.38      766.34303     -137941.04      197.19758      197.45523      815.12044    
     24200  -138676.81      761.46072     -137915.35      197.17751      197.4401       815.48417    
     24300  -138640.76      762.19693     -137878.56      197.15941      197.42693      815.8479     
     24400  -138606.54      765.28136     -137841.26      197.14099      197.41292      816.21163    
     24500  -138575.48      770.61102     -137804.87      197.12379      197.39944      816.57536    
     24600  -138539.14      771.04077     -137768.1       197.10535      197.38433      816.93909    
     24700  -138506.68      774.60284     -137732.08      197.08775      197.36892      817.30282    
     24800  -138470.36      769.758       -137700.6       197.07071      197.35409      817.66655    
     24900  -138443.31      765.62572     -137677.68      197.05143      197.33702      818.03028    
     25000  -138408.97      759.72598     -137649.24      197.03534      197.32308      818.39401    
     25100  -138371.79      762.39528     -137609.4       197.01735      197.30857      818.75774    
     25200  -138337.42      767.63931     -137569.78      196.99974      197.29462      819.12147    
     25300  -138305.26      767.59392     -137537.67      196.98223      197.28146      819.48521    
     25400  -138278.53      769.23325     -137509.3       196.96319      197.26678      819.84894    
     25500  -138246.32      765.36303     -137480.96      196.94589      197.25376      820.21267    
     25600  -138208.61      758.97436     -137449.64      196.92654      197.2388       820.5764     
     25700  -138174.22      766.50896     -137407.71      196.90972      197.2258       820.94013    
     25800  -138140.32      773.52471     -137366.8       196.89218      197.21175      821.30386    
     25900  -138102.34      769.11306     -137333.22      196.87366      197.1964       821.66759    
     26000  -138078.81      770.72803     -137308.08      196.85887      197.1847       822.03132    
     26100  -138046.34      764.92083     -137281.42      196.84002      197.16884      822.39505    
     26200  -138004.91      759.2548      -137245.65      196.825        197.15571      822.75878    
     26300  -137971.37      765.36475     -137206         196.80826      197.14082      823.12251    
     26400  -137939.11      769.75504     -137169.36      196.79126      197.12502      823.48624    
     26500  -137901.14      764.24603     -137136.9       196.77658      197.1122       823.84997    
     26600  -137868.31      763.36941     -137104.94      196.75771      197.09587      824.2137     
     26700  -137842.38      771.79755     -137070.58      196.74257      197.08367      824.57743    
     26800  -137801.56      766.89379     -137034.66      196.72534      197.06915      824.94117    
     26900  -137768.37      767.66934     -137000.7       196.70903      197.05534      825.3049     
     27000  -137737.78      770.94051     -136966.84      196.69452      197.04357      825.66863    
     27100  -137703.79      773.45818     -136930.33      196.67703      197.02864      826.03236    
     27200  -137663.06      772.25919     -136890.8       196.66153      197.01595      826.39609    
     27300  -137626.26      774.82632     -136851.43      196.64477      197.00195      826.75982    
     27400  -137584.77      763.80143     -136820.96      196.62941      196.98739      827.12355    
     27500  -137565.58      769.2243      -136796.35      196.61422      196.97278      827.48728    
     27600  -137525.13      760.34368     -136764.79      196.59926      196.95878      827.85101    
     27700  -137489.17      764.37064     -136724.8       196.584        196.9451       828.21474    
     27800  -137449.99      767.3636      -136682.63      196.56897      196.9328       828.57847    
     27900  -137415.33      767.91747     -136647.41      196.55288      196.91987      828.9422     
     28000  -137378.32      763.95328     -136614.36      196.5374       196.90835      829.30593    
     28100  -137352.69      769.79658     -136582.89      196.52026      196.8947       829.66966    
     28200  -137315.63      763.04058     -136552.59      196.50521      196.88108      830.03339    
     28300  -137279.29      760.06195     -136519.23      196.49043      196.86766      830.39713    
     28400  -137235.17      761.02171     -136474.15      196.47497      196.85344      830.76086    
     28500  -137206.32      773.12448     -136433.2       196.46055      196.8409       831.12459    
     28600  -137172.71      772.78158     -136399.92      196.44549      196.82756      831.48832    
     28700  -137136.01      764.5773      -136371.43      196.43166      196.81521      831.85205    
     28800  -137103.78      758.90031     -136344.88      196.41693      196.80251      832.21578    
     28900  -137069.27      761.75291     -136307.52      196.40092      196.78868      832.57951    
     29000  -137028.28      770.28908     -136257.99      196.38733      196.777        832.94324    
     29100  -136987.71      767.62722     -136220.08      196.37208      196.76267      833.30697    
     29200  -136957.27      772.28131     -136184.99      196.35759      196.74925      833.6707     
     29300  -136917.31      763.80346     -136153.5       196.34357      196.73782      834.03443    
     29400  -136886.82      763.26656     -136123.56      196.32763      196.72408      834.39816    
     29500  -136850.01      766.12589     -136083.88      196.31363      196.71213      834.76189    
     29600  -136810.25      773.71349     -136036.53      196.29902      196.69935      835.12562    
     29700  -136770.07      770.34844     -135999.73      196.28434      196.68614      835.48935    
     29800  -136734.98      766.46249     -135968.52      196.27181      196.67465      835.85309    
     29900  -136704.92      766.87865     -135938.04      196.25743      196.6603       836.21682    
     30000  -136665.37      760.40985     -135904.96      196.24422      196.6482       836.58055    
     30100  -136635.91      773.36438     -135862.55      196.22916      196.63564      836.94428    
     30200  -136593.52      775.3238      -135818.19      196.21404      196.62259      837.30801    
     30300  -136554.93      774.64148     -135780.28      196.20033      196.61084      837.67174    
     30400  -136519.31      769.08256     -135750.22      196.18573      196.59597      838.03547    
     30500  -136485.77      763.51018     -135722.26      196.17402      196.58214      838.3992     
     30600  -136445.54      761.35356     -135684.19      196.16274      196.56727      838.76293    
     30700  -136404.58      771.41225     -135633.17      196.1508       196.55013      839.12666    
     30800  -136368.52      772.55349     -135595.97      196.1417       196.5365       839.49039    
     30900  -136331.41      770.38549     -135561.02      196.12851      196.51947      839.85412    
     31000  -136298.47      769.01111     -135529.46      196.11689      196.50665      840.21785    
     31100  -136250.95      755.36893     -135495.58      196.10376      196.49502      840.58158    
     31200  -136218.17      767.00899     -135451.16      196.08793      196.48294      840.94531    
     31300  -136177.84      772.48763     -135405.35      196.07349      196.47416      841.30905    
     31400  -136141.24      773.31109     -135367.93      196.05679      196.46243      841.67278    
     31500  -136109.66      772.90527     -135336.76      196.0413       196.45124      842.03651    
     31600  -136076.65      768.19343     -135308.45      196.02645      196.43976      842.40024    
     31700  -136029.28      758.96464     -135270.32      196.01136      196.42678      842.76397    
     31800  -135992.36      764.23697     -135228.12      195.99994      196.41597      843.1277     
     31900  -135953.2       767.68845     -135185.51      195.98671      196.40153      843.49143    
     32000  -135914.29      769.15882     -135145.13      195.97555      196.38868      843.85516    
     32100  -135877.71      772.17223     -135105.54      195.96489      196.37551      844.21889    
     32200  -135834.29      769.35241     -135064.93      195.9522       196.35862      844.58262    
     32300  -135800.12      773.1498      -135026.97      195.94165      196.34517      844.94635    
     32400  -135768.31      771.97986     -134996.33      195.92794      196.33084      845.31008    
     32500  -135729.44      764.17775     -134965.26      195.914        196.3193       845.67381    
     32600  -135687.95      763.82546     -134924.13      195.89993      196.30881      846.03754    
     32700  -135644.22      767.4908      -134876.73      195.88421      196.2974       846.40127    
     32800  -135605.68      768.13674     -134837.54      195.86986      196.28746      846.76501    
     32900  -135570.93      768.70226     -134802.23      195.85518      196.27514      847.12874    
     33000  -135531.8       763.4295      -134768.37      195.84176      196.26289      847.49247    
     33100  -135499.49      763.71081     -134735.78      195.82969      196.25072      847.8562     
     33200  -135454.76      755.69872     -134699.06      195.81683      196.23679      848.21993    
     33300  -135421.01      769.83189     -134651.18      195.80528      196.22326      848.58366    
     33400  -135374.99      768.81189     -134606.18      195.7935       196.20779      848.94739    
     33500  -135337.24      769.39763     -134567.84      195.78212      196.1941       849.31112    
     33600  -135296.05      766.60484     -134529.44      195.76996      196.17973      849.67485    
     33700  -135259.65      770.94436     -134488.71      195.75693      196.16541      850.03858    
     33800  -135222.87      774.11834     -134448.75      195.74414      196.15394      850.40231    
     33900  -135190.04      773.3207      -134416.72      195.72951      196.14169      850.76604    
     34000  -135143.07      758.97387     -134384.09      195.71572      196.13141      851.12977    
     34100  -135108.59      766.20643     -134342.39      195.70259      196.12057      851.4935     
     34200  -135061.69      769.96597     -134291.72      195.68869      196.10824      851.85723    
     34300  -135020.62      766.99493     -134253.63      195.67601      196.09673      852.22097    
     34400  -134990.9       770.03632     -134220.87      195.66226      196.08156      852.5847     
     34500  -134946.52      760.41308     -134186.11      195.65079      196.06769      852.94843    
     34600  -134911.04      768.94948     -134142.09      195.639        196.05274      853.31216    
     34700  -134867.6       775.45623     -134092.14      195.628        196.03776      853.67589    
     34800  -134824.61      769.11516     -134055.5       195.61757      196.02345      854.03962    
     34900  -134786.04      762.51729     -134023.52      195.60662      196.00808      854.40335    
     35000  -134751.49      763.57676     -133987.91      195.59654      195.99441      854.76708    
     35100  -134716.95      769.37749     -133947.57      195.58562      195.97985      855.13081    
     35200  -134671.56      776.33533     -133895.22      195.5741       195.96502      855.49454    
     35300  -134623.61      771.08413     -133852.53      195.56296      195.95262      855.85827    
     35400  -134594.67      774.595       -133820.08      195.54922      195.93823      856.222      
     35500  -134553.06      765.26338     -133787.8       195.5357       195.92576      856.58573    
     35600  -134513.63      762.28674     -133751.34      195.52271      195.9145       856.94946    
     35700  -134477.14      770.00612     -133707.13      195.50812      195.90015      857.3132     
     35800  -134425.74      769.47824     -133656.27      195.4966       195.88863      857.67693    
     35900  -134388.53      771.42378     -133617.11      195.48464      195.8737       858.04066    
     36000  -134348.53      764.83533     -133583.7       195.47486      195.85829      858.40439    
     36100  -134314.23      765.48818     -133548.74      195.46664      195.84323      858.76812    
     36200  -134272.79      766.25253     -133506.54      195.45742      195.82539      859.13185    
     36300  -134227.08      772.75692     -133454.32      195.44905      195.8105       859.49558    
     36400  -134185.28      775.99626     -133409.28      195.43844      195.79451      859.85931    
     36500  -134146.02      768.748       -133377.27      195.42643      195.77915      860.22304    
     36600  -134106.25      761.02834     -133345.23      195.41504      195.76636      860.58677    
     36700  -134069.2       762.07101     -133307.13      195.40147      195.75076      860.9505     
     36800  -134020.61      760.4399      -133260.17      195.38964      195.73797      861.31423    
     36900  -133984.93      772.77163     -133212.16      195.37823      195.72436      861.67796    
     37000  -133942.23      767.28745     -133174.94      195.36523      195.70876      862.04169    
     37100  -133912.92      772.41244     -133140.51      195.35473      195.69718      862.40542    
     37200  -133868.83      765.16037     -133103.67      195.34165      195.68218      862.76916    
     37300  -133823.6       761.34806     -133062.25      195.33007      195.66919      863.13289    
     37400  -133780.52      770.98987     -133009.53      195.31828      195.65573      863.49662    
     37500  -133742.03      776.32741     -132965.71      195.30599      195.6409       863.86035    
     37600  -133706.14      773.54985     -132932.59      195.29527      195.62813      864.22408    
     37700  -133668.1       768.70931     -132899.39      195.28305      195.61214      864.58781    
     37800  -133626.94      765.94868     -132860.99      195.27212      195.59695      864.95154    
     37900  -133585.26      771.94357     -132813.32      195.26075      195.58123      865.31527    
     38000  -133533.69      767.81706     -132765.87      195.24903      195.56494      865.679      
     38100  -133504.13      776.1001      -132728.03      195.23815      195.55095      866.04273    
     38200  -133463.67      770.85341     -132692.82      195.2267       195.53621      866.40646    
     38300  -133418.46      762.38006     -132656.08      195.21482      195.522        866.77019    
     38400  -133380.97      766.51608     -132614.46      195.20396      195.5097       867.13392    
     38500  -133328.06      766.52547     -132561.53      195.19088      195.49458      867.49765    
     38600  -133286.94      769.00335     -132517.94      195.17923      195.48206      867.86138    
     38700  -133252.85      768.76395     -132484.09      195.16598      195.46845      868.22512    
     38800  -133219.86      769.31636     -132450.54      195.15126      195.45432      868.58885    
     38900  -133173.31      763.77051     -132409.54      195.13836      195.44371      868.95258    
     39000  -133130.48      766.18234     -132364.29      195.12377      195.43016      869.31631    
     39100  -133086.71      767.65592     -132319.06      195.11045      195.41763      869.68004    
     39200  -133044.23      767.79446     -132276.43      195.0974       195.40431      870.04377    
     39300  -132998.32      762.22453     -132236.1       195.0841       195.38881      870.4075     
     39400  -132964.08      766.8731      -132197.21      195.07381      195.37588      870.77123    
     39500  -132928.12      766.37385     -132161.74      195.06175      195.35887      871.13496    
     39600  -132890.03      759.32305     -132130.71      195.05208      195.34416      871.49869    
     39700  -132841.89      756.47162     -132085.42      195.04161      195.32822      871.86242    
     39800  -132801.9       767.72547     -132034.17      195.02973      195.31262      872.22615    
     39900  -132751.55      762.91649     -131988.64      195.0183       195.30029      872.58988    
     40000  -132711.22      768.06144     -131943.16      195.00405      195.28546      872.95361    
     40100  -132673         770.42638     -131902.57      194.99147      195.2731       873.31734    
     40200  -132629.84      759.60591     -131870.23      194.97852      195.25958      873.68108    
     40300  -132591.24      757.4042      -131833.84      194.96528      195.24365      874.04481    
     40400  -132547.24      761.368       -131785.87      194.95439      195.22992      874.40854    
     40500  -132505.21      770.38117     -131734.83      194.94189      195.21322      874.77227    
     40600  -132465.03      770.73081     -131694.3       194.93088      195.19818      875.136      
     40700  -132424.45      767.1786      -131657.28      194.91983      195.18293      875.49973    
     40800  -132381.71      761.32112     -131620.39      194.90795      195.16669      875.86346    
     40900  -132339.86      762.9426      -131576.91      194.89728      195.15255      876.22719    
     41000  -132294.64      770.94061     -131523.7       194.88541      195.13681      876.59092    
     41100  -132245.77      765.62677     -131480.14      194.87294      195.12173      876.95465    
     41200  -132213.06      769.5724      -131443.49      194.86066      195.10849      877.31838    
     41300  -132174.84      766.42743     -131408.41      194.84748      195.09391      877.68211    
     41400  -132133.21      764.83274     -131368.38      194.83497      195.08033      878.04584    
     41500  -132091.97      771.52895     -131320.44      194.82234      195.06561      878.40957    
     41600  -132039.22      775.6225      -131263.6       194.81017      195.05015      878.7733     
     41700  -131995.84      768.43136     -131227.4       194.79961      195.03547      879.13704    
     41800  -131964.81      769.86736     -131194.95      194.78847      195.01758      879.50077    
     41900  -131923.4       765.73728     -131157.67      194.7786       195.00001      879.8645     
     42000  -131881.6       766.3297      -131115.27      194.7691       194.98216      880.22823    
     42100  -131836.04      770.79671     -131065.25      194.75882      194.96443      880.59196    
     42200  -131785.18      769.69803     -131015.48      194.74836      194.94833      880.95569    
     42300  -131751.03      775.1962      -130975.84      194.73727      194.93319      881.31942    
     42400  -131706.26      766.47503     -130939.78      194.72535      194.91754      881.68315    
     42500  -131671.18      771.20544     -130899.98      194.71428      194.90236      882.04688    
     42600  -131625.22      766.69723     -130858.52      194.70366      194.88679      882.41061    
     42700  -131584.08      769.51162     -130814.57      194.69281      194.87047      882.77434    
     42800  -131532.86      769.47828     -130763.38      194.68242      194.85431      883.13807    
     42900  -131492.3       775.3593      -130716.94      194.67232      194.83818      883.5018     
     43000  -131454.87      771.23682     -130683.64      194.66175      194.82152      883.86553    
     43100  -131413.07      765.3952      -130647.68      194.65139      194.80575      884.22926    
     43200  -131367.61      763.07658     -130604.53      194.63949      194.7883       884.593      
     43300  -131320.8       762.24466     -130558.55      194.62781      194.77233      884.95673    
     43400  -131284.05      776.19869     -130507.85      194.61629      194.75631      885.32046    
     43500  -131236.53      774.80232     -130461.73      194.60391      194.73881      885.68419    
     43600  -131197.03      763.72485     -130433.3       194.59341      194.72408      886.04792    
     43700  -131159.55      764.03908     -130395.51      194.58167      194.70804      886.41165    
     43800  -131110.62      760.37079     -130350.25      194.57043      194.6932       886.77538    
     43900  -131069.11      770.00784     -130299.1       194.55989      194.67861      887.13911    
     44000  -131028.3       774.32558     -130253.98      194.54802      194.66165      887.50284    
     44100  -130987.41      770.44156     -130216.97      194.53654      194.64579      887.86657    
     44200  -130947.99      763.63144     -130184.36      194.52489      194.62982      888.2303     
     44300  -130909.03      768.21472     -130140.82      194.51253      194.61304      888.59403    
     44400  -130859.17      766.39875     -130092.77      194.50165      194.59778      888.95776    
     44500  -130815.3       770.58071     -130044.71      194.48988      194.58047      889.32149    
     44600  -130773.52      772.05858     -130001.47      194.47903      194.56389      889.68522    
     44700  -130731.2       759.57602     -129971.63      194.46822      194.54669      890.04896    
     44800  -130693.8       762.92074     -129930.88      194.45676      194.52872      890.41269    
     44900  -130645.56      765.04172     -129880.52      194.44597      194.51354      890.77642    
     45000  -130599.36      767.59592     -129831.76      194.4339       194.49719      891.14015    
     45100  -130551.13      762.88154     -129788.25      194.42177      194.48148      891.50388    
     45200  -130518.52      770.63578     -129747.89      194.4102       194.46835      891.86761    
     45300  -130477.12      761.98965     -129715.13      194.39625      194.4527       892.23134    
     45400  -130441.74      761.78895     -129679.95      194.38328      194.43866      892.59507    
     45500  -130390.95      759.00893     -129631.95      194.37066      194.42487      892.9588     
     45600  -130349.85      767.28478     -129582.57      194.35695      194.40877      893.32253    
     45700  -130299.11      765.10586     -129534.01      194.34514      194.39504      893.68626    
     45800  -130260.36      773.42475     -129486.94      194.33218      194.37923      894.04999    
     45900  -130208.53      763.1536      -129445.38      194.3194       194.36348      894.41372    
     46000  -130173.88      761.30074     -129412.58      194.30733      194.34936      894.77745    
     46100  -130134         761.75512     -129372.25      194.29333      194.33282      895.14119    
     46200  -130086.1       763.74639     -129322.36      194.28106      194.31778      895.50492    
     46300  -130044.25      773.28603     -129270.96      194.26918      194.3014       895.86865    
     46400  -129996.88      767.72295     -129229.16      194.25768      194.28456      896.23238    
     46500  -129954.17      764.37413     -129189.8       194.24763      194.26975      896.59611    
     46600  -129916.31      765.60366     -129150.71      194.23574      194.2524       896.95984    
     46700  -129869.74      760.54077     -129109.2       194.22419      194.23701      897.32357    
     46800  -129831.02      766.71043     -129064.31      194.21138      194.22295      897.6873     
     46900  -129784.86      770.25883     -129014.6       194.196        194.2077       898.05103    
     47000  -129738.27      770.82059     -128967.45      194.18246      194.19518      898.41476    
     47100  -129697.68      767.68692     -128930         194.16738      194.1804       898.77849    
     47200  -129659.29      764.75991     -128894.53      194.1531       194.16549      899.14222    
     47300  -129616.54      766.13219     -128850.41      194.1405       194.15222      899.50595    
     47400  -129568.75      765.91193     -128802.84      194.12637      194.13509      899.86968    
     47500  -129524.58      766.5673      -128758.01      194.11516      194.11981      900.23341    
     47600  -129479.69      765.06977     -128714.62      194.1045       194.10423      900.59715    
     47700  -129442.2       769.20862     -128673         194.09205      194.08606      900.96088    
     47800  -129398.27      762.59149     -128635.68      194.08116      194.07093      901.32461    
     47900  -129359.46      759.45258     -128600.01      194.06829      194.05462      901.68834    
     48000  -129315.9       765.50966     -128550.39      194.05539      194.03869      902.05207    
     48100  -129263.98      766.48584     -128497.49      194.04319      194.02367      902.4158     
     48200  -129221.55      768.67683     -128452.87      194.0305       194.00702      902.77953    
     48300  -129178.83      768.61904     -128410.21      194.01937      193.99155      903.14326    
     48400  -129136.08      764.01165     -128372.07      194.00694      193.97527      903.50699    
     48500  -129100.55      768.05668     -128332.49      193.99408      193.95874      903.87072    
     48600  -129050.08      762.10385     -128287.98      193.98262      193.94492      904.23445    
     48700  -129002.5       769.50966     -128232.99      193.96815      193.92801      904.59818    
     48800  -128956.06      769.58107     -128186.48      193.95517      193.91353      904.96191    
     48900  -128919.41      770.18885     -128149.22      193.94252      193.89906      905.32564    
     49000  -128878.77      767.02908     -128111.74      193.92935      193.88336      905.68937    
     49100  -128832.69      764.9072      -128067.79      193.91776      193.86932      906.05311    
     49200  -128786.36      766.17298     -128020.19      193.90416      193.85256      906.41684    
     49300  -128738.93      766.45727     -127972.47      193.89211      193.83707      906.78057    
     49400  -128699.17      771.06473     -127928.11      193.88142      193.8218       907.1443     
     49500  -128654.74      762.67887     -127892.06      193.86863      193.80323      907.50803    
     49600  -128620.58      767.70181     -127852.88      193.85941      193.78852      907.87176    
     49700  -128571.07      763.27767     -127807.79      193.84682      193.77066      908.23549    
     49800  -128523.89      768.06015     -127755.83      193.83503      193.75445      908.59922    
     49900  -128476.65      773.87565     -127702.77      193.82368      193.7395       908.96295    
     50000  -128434.33      771.6098      -127662.72      193.81069      193.72171      909.32668    
     50100  -128395.37      771.19859     -127624.17      193.79989      193.70627      909.69041    
     50200  -128352.9       769.95093     -127582.95      193.78899      193.68943      910.05414    
     50300  -128307.24      764.94924     -127542.29      193.77717      193.67227      910.41787    
     50400  -128262.19      761.78103     -127500.41      193.76593      193.65699      910.7816     
     50500  -128224.07      765.88379     -127458.19      193.75323      193.6408       911.14533    
     50600  -128181.77      769.45716     -127412.31      193.74029      193.6258       911.50907    
     50700  -128130.36      771.12475     -127359.24      193.72739      193.61208      911.8728     
     50800  -128087.82      775.57317     -127312.24      193.71242      193.5963       912.23653    
     50900  -128041.89      765.35576     -127276.53      193.69985      193.58296      912.60026    
     51000  -127994.48      756.57501     -127237.91      193.6866       193.56807      912.96399    
     51100  -127956.68      765.96143     -127190.71      193.67323      193.55208      913.32772    
     51200  -127909.32      767.34934     -127141.97      193.66204      193.5375       913.69145    
     51300  -127861.75      768.82466     -127092.92      193.64888      193.51951      914.05518    
     51400  -127821.39      770.15078     -127051.23      193.63827      193.50346      914.41891    
     51500  -127779.16      762.93858     -127016.22      193.62736      193.48704      914.78264    
     51600  -127740.48      766.98032     -126973.5       193.61501      193.46881      915.14637    
     51700  -127692.34      768.16101     -126924.18      193.60487      193.45366      915.5101     
     51800  -127638.11      767.28787     -126870.82      193.59328      193.43747      915.87383    
     51900  -127596.35      775.14678     -126821.2       193.58067      193.4211       916.23756    
     52000  -127555.28      767.01909     -126788.26      193.56992      193.4072       916.60129    
     52100  -127519.89      770.0619      -126749.83      193.55577      193.39054      916.96503    
     52200  -127467.83      760.994       -126706.84      193.54311      193.37493      917.32876    
     52300  -127427.68      766.46746     -126661.21      193.53049      193.36026      917.69249    
     52400  -127384.93      770.06319     -126614.86      193.51732      193.34444      918.05622    
     52500  -127339.5       768.65525     -126570.85      193.5052       193.33022      918.41995    
     52600  -127290.62      758.57152     -126532.05      193.49257      193.31535      918.78368    
     52700  -127252.51      762.24124     -126490.27      193.47961      193.29995      919.14741    
     52800  -127207.97      767.51518     -126440.46      193.46898      193.28606      919.51114    
     52900  -127159.73      776.30601     -126383.42      193.45616      193.26937      919.87487    
     53000  -127112.18      773.49253     -126338.69      193.44383      193.25257      920.2386     
     53100  -127070.41      768.64643     -126301.76      193.4324       193.23726      920.60233    
     53200  -127018.93      760.68829     -126258.24      193.42025      193.22122      920.96606    
     53300  -126979.62      763.33122     -126216.29      193.40787      193.20608      921.32979    
     53400  -126941.11      765.16571     -126175.95      193.39568      193.19161      921.69352    
     53500  -126902.96      771.43342     -126131.52      193.38252      193.17578      922.05725    
     53600  -126849.39      768.78111     -126080.61      193.36995      193.16088      922.42099    
     53700  -126799.56      773.45183     -126026.11      193.3572       193.14451      922.78472    
     53800  -126757.85      774.55531     -125983.3       193.34405      193.12804      923.14845    
     53900  -126717.75      770.8366      -125946.92      193.33197      193.11298      923.51218    
     54000  -126677.43      773.44674     -125903.98      193.31935      193.09889      923.87591    
     54100  -126628.48      766.99834     -125861.48      193.30544      193.08517      924.23964    
     54200  -126588.2       769.39365     -125818.81      193.29222      193.07244      924.60337    
     54300  -126541.59      763.71615     -125777.88      193.27802      193.05777      924.9671     
     54400  -126502.66      763.72605     -125738.94      193.26471      193.0429       925.33083    
     54500  -126454.58      763.8634      -125690.72      193.25206      193.02726      925.69456    
     54600  -126401.33      769.99701     -125631.33      193.23833      193.01109      926.05829    
     54700  -126354.02      770.9391      -125583.09      193.22618      192.99682      926.42202    
     54800  -126314.31      770.95868     -125543.35      193.21298      192.98239      926.78575    
     54900  -126273.09      771.66666     -125501.42      193.19963      192.96787      927.14948    
     55000  -126228.72      771.3733      -125457.35      193.18725      192.9538       927.51321    
     55100  -126181.46      767.9107      -125413.55      193.17326      192.93943      927.87695    
     55200  -126138.71      763.90884     -125374.8       193.15915      192.92516      928.24068    
     55300  -126097.26      761.13506     -125336.13      193.14521      192.9116       928.60441    
     55400  -126050.34      765.04728     -125285.29      193.13048      192.89703      928.96814    
     55500  -126008.14      775.2402      -125232.9       193.11751      192.8828       929.33187    
     55600  -125949.59      765.60231     -125183.99      193.10583      192.86865      929.6956     
     55700  -125902.3       763.04864     -125139.25      193.09287      192.85219      930.05933    
     55800  -125863.34      761.42207     -125101.92      193.08101      192.83806      930.42306    
     55900  -125822.22      764.58851     -125057.63      193.06737      192.824        930.78679    
     56000  -125776.87      769.1528      -125007.71      193.05216      192.81007      931.15052    
     56100  -125734.38      775.83023     -124958.55      193.03779      192.79705      931.51425    
     56200  -125692.29      775.28308     -124917         193.02349      192.78322      931.87798    
     56300  -125640.65      762.49946     -124878.15      193.01085      192.76898      932.24171    
     56400  -125588.88      759.38621     -124829.49      192.99934      192.75484      932.60544    
     56500  -125543.57      764.62302     -124778.94      192.9865       192.73966      932.96917    
     56600  -125506.1       775.46427     -124730.64      192.97442      192.72662      933.33291    
     56700  -125457.15      762.44369     -124694.71      192.9598       192.71266      933.69664    
     56800  -125417.63      767.42109     -124650.21      192.94562      192.69918      934.06037    
     56900  -125367.62      768.55355     -124599.07      192.9316       192.68459      934.4241     
     57000  -125319.05      769.72491     -124549.33      192.91736      192.66865      934.78783    
     57100  -125279.16      770.03501     -124509.12      192.90508      192.65513      935.15156    
     57200  -125236.54      768.74033     -124467.8       192.89138      192.64046      935.51529    
     57300  -125185.28      767.27916     -124418         192.87776      192.62629      935.87902    
     57400  -125135.86      772.04118     -124363.82      192.8652       192.6127       936.24275    
     57500  -125088.07      773.83727     -124314.24      192.85171      192.59775      936.60648    
     57600  -125045.93      768.60321     -124277.33      192.8391       192.5833       936.97021    
     57700  -125003.53      768.43634     -124235.09      192.82574      192.56848      937.33394    
     57800  -124953.73      763.64777     -124190.08      192.81175      192.55424      937.69767    
     57900  -124907.22      762.98601     -124144.23      192.79759      192.54149      938.0614     
     58000  -124869.06      767.25042     -124101.8       192.78347      192.52846      938.42514    
     58100  -124819.35      759.11887     -124060.24      192.769        192.51495      938.78887    
     58200  -124779.61      769.71307     -124009.9       192.75628      192.50192      939.1526     
     58300  -124717.61      771.35002     -123946.26      192.7427       192.48661      939.51633    
     58400  -124671.16      773.69499     -123897.46      192.729        192.47136      939.88006    
     58500  -124631.98      773.89899     -123858.09      192.71588      192.45678      940.24379    
     58600  -124590.06      774.71108     -123815.35      192.7007       192.44243      940.60752    
     58700  -124542.55      769.59168     -123772.96      192.68672      192.42979      940.97125    
     58800  -124497.02      769.42164     -123727.59      192.67259      192.41646      941.33498    
     58900  -124454.54      772.85617     -123681.68      192.65813      192.40286      941.69871    
     59000  -124409.03      771.99436     -123637.03      192.64532      192.39017      942.06244    
     59100  -124361.43      763.46672     -123597.97      192.63159      192.37557      942.42617    
     59200  -124314.13      765.35207     -123548.77      192.61836      192.36033      942.7899     
     59300  -124266.79      772.58684     -123494.2       192.60646      192.34564      943.15363    
     59400  -124210.54      767.61099     -123442.93      192.59363      192.33011      943.51736    
     59500  -124165.49      765.15322     -123400.34      192.5814       192.31549      943.8811     
     59600  -124122.97      767.04217     -123355.92      192.56827      192.30039      944.24483    
     59700  -124077.57      771.78546     -123305.79      192.55478      192.28623      944.60856    
     59800  -124024.1       766.86512     -123257.23      192.54055      192.27147      944.97229    
     59900  -123982.09      768.01826     -123214.07      192.52658      192.2568       945.33602    
     60000  -123936.68      769.15908     -123167.53      192.51411      192.24292      945.69975    
     60100  -123885.34      769.12365     -123116.22      192.50017      192.22787      946.06348    
     60200  -123836.64      771.48938     -123065.15      192.48668      192.21412      946.42721    
     60300  -123790.75      770.01106     -123020.74      192.47432      192.20082      946.79094    
     60400  -123745.65      770.08735     -122975.56      192.45973      192.18602      947.15467    
     60500  -123688.45      763.81104     -122924.63      192.44683      192.17303      947.5184     
     60600  -123648.76      770.94165     -122877.81      192.43123      192.15722      947.88213    
     60700  -123603.34      771.43722     -122831.9       192.41723      192.14176      948.24586    
     60800  -123547.17      763.91456     -122783.25      192.4054       192.12725      948.60959    
     60900  -123503.19      768.84866     -122734.34      192.39106      192.11019      948.97332    
     61000  -123459.71      774.32007     -122685.39      192.37932      192.09641      949.33706    
     61100  -123405.94      768.29611     -122637.64      192.36653      192.08253      949.70079    
     61200  -123360.41      772.88508     -122587.53      192.351        192.06811      950.06452    
     61300  -123312.42      773.99082     -122538.43      192.33759      192.05685      950.42825    
     61400  -123256.37      762.94575     -122493.43      192.32069      192.04245      950.79198    
     61500  -123218.72      774.65536     -122444.06      192.30602      192.02925      951.15571    
     61600  -123164.75      769.58206     -122395.17      192.2925       192.01535      951.51944    
     61700  -123116.76      768.59156     -122348.16      192.27817      192.00034      951.88317    
     61800  -123064.31      766.54074     -122297.77      192.26577      191.98658      952.2469     
     61900  -123022.06      774.17668     -122247.88      192.25117      191.97097      952.61063    
     62000  -122967.31      769.20105     -122198.1       192.23786      191.95704      952.97436    
     62100  -122924.37      775.48973     -122148.88      192.22332      191.94246      953.33809    
     62200  -122870.87      771.53692     -122099.33      192.20827      191.92737      953.70182    
     62300  -122819.66      769.56305     -122050.1       192.19561      191.9143       954.06555    
     62400  -122770.24      768.53059     -122001.71      192.18029      191.89886      954.42928    
     62500  -122720.34      768.95681     -121951.39      192.16819      191.88695      954.79302    
     62600  -122672.87      770.88443     -121901.98      192.15419      191.87342      955.15675    
     62700  -122624.3       773.40103     -121850.9       192.1392       191.8597       955.52048    
     62800  -122570.24      770.28156     -121799.95      192.12524      191.84744      955.88421    
     62900  -122521.13      771.2474      -121749.88      192.10768      191.83232      956.24794    
     63000  -122468.08      770.29099     -121697.79      192.09347      191.81978      956.61167    
     63100  -122414.22      765.18606     -121649.03      192.07808      191.80538      956.9754     
     63200  -122370.71      773.2188      -121597.49      192.06253      191.79058      957.33913    
     63300  -122315.77      768.77818     -121546.99      192.05035      191.77821      957.70286    
     63400  -122270.67      773.93233     -121496.74      192.0343       191.76247      958.06659    
     63500  -122217.8       774.2298      -121443.57      192.02134      191.74996      958.43032    
     63600  -122162.29      769.13571     -121393.15      192.00704      191.73659      958.79405    
     63700  -122110.86      769.1412      -121341.72      191.99162      191.7224       959.15778    
     63800  -122063.38      774.55586     -121288.83      191.97855      191.71056      959.52151    
     63900  -122015.62      777.52138     -121238.09      191.96186      191.69581      959.88524    
     64000  -121959.78      774.23059     -121185.55      191.94754      191.68364      960.24898    
     64100  -121905.58      771.86513     -121133.72      191.93233      191.67         960.61271    
     64200  -121852.79      771.13539     -121081.66      191.9168       191.65556      960.97644    
     64300  -121803.03      774.84641     -121028.19      191.90362      191.64201      961.34017    
     64400  -121742.92      767.14225     -120975.77      191.88837      191.62543      961.7039     
     64500  -121688.06      767.74686     -120920.31      191.87581      191.61031      962.06763    
     64600  -121640.18      772.29262     -120867.88      191.86239      191.59474      962.43136    
     64700  -121583.33      770.28157     -120813.05      191.84801      191.57994      962.79509    
     64800  -121529.14      770.25045     -120758.89      191.8347       191.56695      963.15882    
     64900  -121478.07      771.81546     -120706.25      191.81892      191.55266      963.52255    
     65000  -121426.73      773.45403     -120653.28      191.80539      191.54017      963.88628    
     65100  -121370.48      770.56735     -120599.92      191.79133      191.52629      964.25001    
     65200  -121317.06      771.91994     -120545.14      191.77691      191.5113       964.61374    
     65300  -121261.73      771.73731     -120490         191.76392      191.49675      964.97747    
     65400  -121208.27      773.05425     -120435.22      191.74935      191.48094      965.3412     
     65500  -121148.43      768.58835     -120379.84      191.73561      191.46646      965.70494    
     65600  -121096.09      772.44309     -120323.65      191.72132      191.45199      966.06867    
     65700  -121038.23      770.98818     -120267.24      191.70626      191.43816      966.4324     
     65800  -120983.69      772.49589     -120211.2       191.69152      191.42468      966.79613    
     65900  -120925.49      770.65163     -120154.83      191.67594      191.4113       967.15986    
     66000  -120874.2       775.66279     -120098.54      191.66152      191.39833      967.52359    
     66100  -120816.29      774.02596     -120042.26      191.64655      191.38481      967.88732    
     66200  -120760.59      774.70641     -119985.88      191.6314       191.37087      968.25105    
     66300  -120699.96      770.8244      -119929.14      191.61738      191.35682      968.61478    
     66400  -120647.25      775.32821     -119871.92      191.6029       191.34186      968.97851    
     66500  -120585.13      769.7269      -119815.4       191.58975      191.32765      969.34224    
     66600  -120533.05      775.35672     -119757.69      191.57476      191.31227      969.70597    
     66700  -120471         771.7929      -119699.2       191.56019      191.29865      970.0697     
     66800  -120420.09      779.10362     -119640.99      191.5453       191.28506      970.43343    
     66900  -120357.38      773.99066     -119583.39      191.52902      191.27133      970.79716    
     67000  -120297.02      772.67404     -119524.34      191.51386      191.25817      971.1609     
     67100  -120238.54      772.39857     -119466.14      191.49876      191.2439       971.52463    
     67200  -120180.67      774.67596     -119405.99      191.48375      191.22951      971.88836    
     67300  -120122.46      775.39075     -119347.07      191.47         191.21557      972.25209    
     67400  -120064.24      776.53057     -119287.71      191.45488      191.20107      972.61582    
     67500  -120001.07      774.1754      -119226.9       191.44098      191.18764      972.97955    
     67600  -119946.6       778.13191     -119168.47      191.426        191.17397      973.34328    
     67700  -119877.37      769.67935     -119107.69      191.41037      191.16053      973.70701    
     67800  -119823.4       777.18108     -119046.22      191.395        191.14766      974.07074    
     67900  -119758.91      774.67837     -118984.23      191.3783       191.13444      974.43447    
     68000  -119697.83      775.93191     -118921.9       191.3627       191.12215      974.7982     
     68100  -119626.57      766.92155     -118859.65      191.34587      191.10867      975.16193    
     68200  -119573.47      775.62688     -118797.84      191.3308       191.09601      975.52566    
     68300  -119509.42      772.35232     -118737.07      191.31548      191.0817       975.88939    
     68400  -119448.92      775.05394     -118673.86      191.30057      191.06686      976.25312    
     68500  -119387.79      775.29645     -118612.49      191.28716      191.05312      976.61686    
     68600  -119324.37      773.54084     -118550.83      191.27167      191.03772      976.98059    
     68700  -119261.52      773.0988      -118488.43      191.25798      191.02423      977.34432    
     68800  -119203.29      779.33803     -118423.95      191.24307      191.0098       977.70805    
     68900  -119138.69      779.18962     -118359.5       191.22818      190.99687      978.07178    
     69000  -119068.02      770.39382     -118297.63      191.21278      190.98409      978.43551    
     69100  -119004.43      771.56818     -118232.86      191.19658      190.97044      978.79924    
     69200  -118941.9       773.73925     -118168.16      191.18163      190.95825      979.16297    
     69300  -118881.61      780.07163     -118101.54      191.16566      190.9449       979.5267     
     69400  -118819.5       780.78176     -118038.72      191.15008      190.93145      979.89043    
     69500  -118754.65      782.11031     -117972.54      191.1351       190.91779      980.25416    
     69600  -118679.02      772.60045     -117906.42      191.1196       190.90333      980.61789    
     69700  -118624.65      782.68771     -117841.96      191.1053       190.8898       980.98162    
     69800  -118549.37      772.99406     -117776.38      191.08993      190.87538      981.34535    
     69900  -118485.95      775.54504     -117710.41      191.07506      190.86142      981.70909    
     70000  -118421.32      777.03207     -117644.29      191.06016      190.84788      982.07282    
     70100  -118354.35      780.14211     -117574.2       191.04447      190.83371      982.43655    
     70200  -118282.39      777.32174     -117505.07      191.03053      190.82047      982.80028    
     70300  -118215.21      776.3122      -117438.9       191.01543      190.80584      983.16401    
     70400  -118149.52      777.91882     -117371.6       191.00159      190.79184      983.52774    
     70500  -118083.48      779.55557     -117303.92      190.98773      190.77775      983.89147    
     70600  -118014.8       779.63879     -117235.16      190.97254      190.76245      984.2552     
     70700  -117948.79      784.44455     -117164.35      190.95902      190.74969      984.61893    
     70800  -117878.91      782.92181     -117095.99      190.94262      190.73538      984.98266    
     70900  -117815.86      788.20119     -117027.66      190.92725      190.72244      985.34639    
     71000  -117743.44      784.84928     -116958.59      190.91171      190.70907      985.71012    
     71100  -117673.91      786.27716     -116887.63      190.89613      190.69491      986.07385    
     71200  -117598.23      782.04369     -116816.19      190.88234      190.68167      986.43758    
     71300  -117533.73      787.90032     -116745.83      190.86725      190.66672      986.80131    
     71400  -117461.47      786.18079     -116675.29      190.85374      190.65272      987.16505    
     71500  -117392.5       789.17027     -116603.33      190.83958      190.63828      987.52878    
     71600  -117315.56      785.05033     -116530.51      190.82489      190.62337      987.89251    
     71700  -117248.49      788.92509     -116459.56      190.81127      190.60923      988.25624    
     71800  -117174.98      787.59145     -116387.39      190.79669      190.59441      988.61997    
     71900  -117103.65      787.4353      -116316.22      190.78248      190.57979      988.9837     
     72000  -117032.19      787.60202     -116244.59      190.76829      190.56586      989.34743    
     72100  -116958.18      787.52786     -116170.65      190.75268      190.55084      989.71116    
     72200  -116894.9       795.56688     -116099.33      190.73883      190.53734      990.07489    
     72300  -116816.72      789.65178     -116027.07      190.72408      190.52278      990.43862    
     72400  -116749.32      795.53901     -115953.78      190.7098       190.50764      990.80235    
     72500  -116667.59      791.6764      -115875.91      190.69678      190.49318      991.16608    
     72600  -116595.79      799.56602     -115796.22      190.68212      190.47736      991.52981    
     72700  -116515.6       795.4675      -115720.14      190.66883      190.46328      991.89354    
[...]
    129600  -142291.15      763.72781     -141527.43      195.59747      192.43536      1198.8563    
    129700  -142298.07      759.56536     -141538.51      195.60959      192.40112      1199.22      
    129800  -142294.3       761.4758      -141532.82      195.6208       192.36455      1199.5838    
    129900  -142285.87      769.88919     -141515.98      195.63217      192.32598      1199.9475    
    130000  -142280.9       777.43432     -141503.47      195.64341      192.28734      1200.3112    
    130100  -142274.11      767.98148     -141506.13      195.65219      192.2486       1200.6749    
    130200  -142283.33      766.09011     -141517.24      195.6613       192.20922      1201.0387    
    130300  -142281.96      761.59099     -141520.37      195.67077      192.1714       1201.4024    
    130400  -142279.09      767.37541     -141511.71      195.68063      192.13425      1201.7661    
    130500  -142265.64      769.52212     -141496.11      195.69472      192.09986      1202.1299    
    130600  -142260.27      775.44345     -141484.83      195.71012      192.06455      1202.4936    
    130700  -142265.9       778.15869     -141487.74      195.72554      192.03068      1202.8573    
    130800  -142265         764.18547     -141500.82      195.74116      191.99993      1203.2211    
    130900  -142266.17      761.90393     -141504.27      195.75919      191.97053      1203.5848    
    131000  -142257.8       765.4025      -141492.4       195.77702      191.94072      1203.9485    
    131100  -142250.33      774.51695     -141475.82      195.79341      191.91306      1204.3123    
    131200  -142244.43      774.15643     -141470.28      195.81184      191.88944      1204.676     
    131300  -142242.75      766.48245     -141476.27      195.82981      191.8668       1205.0397    
    131400  -142249.14      765.53996     -141483.6       195.84597      191.84567      1205.4034    
    131500  -142248.02      764.36251     -141483.65      195.86285      191.8291       1205.7672    
    131600  -142239.17      762.36026     -141476.81      195.87905      191.81429      1206.1309    
    131700  -142238.08      771.59198     -141466.49      195.89654      191.8002       1206.4946    
    131800  -142232.81      770.56419     -141462.24      195.91222      191.78569      1206.8584    
    131900  -142240.45      773.2261      -141467.23      195.92725      191.77125      1207.2221    
    132000  -142245.09      767.71266     -141477.38      195.94447      191.75736      1207.5858    
    132100  -142242.34      760.40407     -141481.94      195.9591       191.74231      1207.9496    
    132200  -142243.34      767.5407      -141475.8       195.97114      191.73188      1208.3133    
    132300  -142238.91      773.62539     -141465.28      195.9782       191.72087      1208.677     
    132400  -142235.36      775.48695     -141459.88      195.98798      191.71503      1209.0408    
    132500  -142231.4       768.34561     -141463.05      195.99503      191.70826      1209.4045    
    132600  -142234.89      764.98734     -141469.9       195.99989      191.704        1209.7682    
    132700  -142231.57      760.51531     -141471.05      196.00388      191.70252      1210.1319    
    132800  -142236.84      769.93742     -141466.9       196.00664      191.70253      1210.4957    
    132900  -142230.63      767.88526     -141462.74      196.00973      191.70387      1210.8594    
    133000  -142226.6       767.46685     -141459.14      196.01148      191.70485      1211.2231    
    133100  -142224.89      767.06542     -141457.82      196.01214      191.70737      1211.5869    
    133200  -142224.53      766.67689     -141457.86      196.00966      191.70848      1211.9506    
    133300  -142225.85      767.75057     -141458.1       196.00506      191.71019      1212.3143    
    133400  -142229.11      773.49457     -141455.61      195.99791      191.71036      1212.6781    
    133500  -142223.74      770.71762     -141453.03      195.9893       191.70761      1213.0418    
    133600  -142216.3       763.24882     -141453.05      195.98279      191.70756      1213.4055    
    133700  -142221.33      767.44098     -141453.89      195.97256      191.70446      1213.7693    
    133800  -142222.56      768.07633     -141454.49      195.96351      191.70214      1214.133     
    133900  -142219.11      763.96089     -141455.15      195.95317      191.69661      1214.4967    
    134000  -142222.97      767.28035     -141455.69      195.94179      191.69047      1214.8604    
    134100  -142227.52      771.66323     -141455.86      195.93016      191.68566      1215.2242    
    134200  -142217.96      766.71036     -141451.25      195.91559      191.67845      1215.5879    
    134300  -142210.6       767.26565     -141443.34      195.90316      191.67398      1215.9516    
    134400  -142210.44      771.70319     -141438.73      195.88709      191.6671       1216.3154    
    134500  -142213.6       769.25121     -141444.35      195.87103      191.6653       1216.6791    
    134600  -142216.19      766.26163     -141449.92      195.85216      191.66274      1217.0428    
    134700  -142211.23      762.0102      -141449.22      195.83364      191.66103      1217.4066    
    134800  -142214.67      772.39901     -141442.27      195.81115      191.6618       1217.7703    
    134900  -142205.62      768.75348     -141436.87      195.78857      191.66355      1218.134     
    135000  -142206.96      769.95044     -141437.01      195.76764      191.66664      1218.4978    
    135100  -142209.05      767.63715     -141441.41      195.74655      191.66993      1218.8615    
    135200  -142213.81      765.27145     -141448.54      195.72411      191.67434      1219.2252    
    135300  -142211.8       758.68913     -141453.11      195.70201      191.67855      1219.5889    
    135400  -142216.46      768.3272      -141448.13      195.68224      191.68238      1219.9527    
    135500  -142213.88      774.5594      -141439.32      195.66161      191.68791      1220.3164    
    135600  -142207.68      769.95914     -141437.72      195.64261      191.69634      1220.6801    
    135700  -142210.99      766.29268     -141444.7       195.62341      191.70491      1221.0439    
    135800  -142220.57      766.01259     -141454.56      195.6064       191.71553      1221.4076    
    135900  -142227.75      766.67085     -141461.08      195.58893      191.72744      1221.7713    
    136000  -142225.24      765.69841     -141459.54      195.57207      191.7403       1222.1351    
    136100  -142217.65      767.97763     -141449.67      195.55903      191.7527       1222.4988    
    136200  -142212.51      773.69292     -141438.82      195.54626      191.76427      1222.8625    
    136300  -142210.7       771.7776      -141438.93      195.53597      191.77774      1223.2263    
    136400  -142219.88      772.19696     -141447.69      195.52914      191.79206      1223.59      
    136500  -142221.64      768.65889     -141452.98      195.5235       191.8043       1223.9537    
    136600  -142208.85      758.90095     -141449.95      195.5177       191.81607      1224.3174    
    136700  -142214.44      772.15785     -141442.28      195.51402      191.82847      1224.6812    
    136800  -142211.04      772.81205     -141438.23      195.51096      191.84245      1225.0449    
    136900  -142219.91      773.63372     -141446.27      195.50874      191.8567       1225.4086    
    137000  -142222.37      762.23585     -141460.14      195.50571      191.87302      1225.7724    
    137100  -142221.64      756.4722      -141465.17      195.50394      191.89244      1226.1361    
    137200  -142225.28      768.30594     -141456.97      195.50141      191.9102       1226.4998    
    137300  -142224.73      777.53906     -141447.19      195.49937      191.92913      1226.8636    
    137400  -142221.31      773.04467     -141448.27      195.49698      191.94919      1227.2273    
    137500  -142232.37      770.42454     -141461.95      195.4953       191.96968      1227.591     
    137600  -142233.01      758.83292     -141474.17      195.49332      191.99086      1227.9548    
    137700  -142236.73      764.85222     -141471.88      195.49175      192.01386      1228.3185    
    137800  -142237.04      775.50952     -141461.53      195.49104      192.03822      1228.6822    
    137900  -142232.18      771.39921     -141460.79      195.48974      192.06115      1229.0459    
    138000  -142241.04      770.00873     -141471.03      195.48779      192.0847       1229.4097    
    138100  -142245.77      764.07914     -141481.69      195.4852       192.10772      1229.7734    
    138200  -142245.95      762.16548     -141483.78      195.4844       192.13099      1230.1371    
    138300  -142245.82      767.01312     -141478.81      195.48389      192.15248      1230.5009    
    138400  -142242.67      768.41341     -141474.25      195.48309      192.17189      1230.8646    
    138500  -142244.05      767.22553     -141476.82      195.48437      192.19338      1231.2283    
    138600  -142250.25      767.25732     -141482.99      195.48512      192.21172      1231.5921    
    138700  -142251.51      763.69055     -141487.82      195.48664      192.22993      1231.9558    
    138800  -142255.11      767.3417      -141487.77      195.4875       192.24599      1232.3195    
    138900  -142257.35      772.57597     -141484.77      195.4881       192.26189      1232.6832    
    139000  -142255.69      772.80704     -141482.89      195.48873      192.2778       1233.047     
    139100  -142263.02      776.85239     -141486.17      195.4871       192.29287      1233.4107    
    139200  -142258.96      765.75138     -141493.21      195.48447      192.31017      1233.7744    
    139300  -142263.05      764.83868     -141498.21      195.47881      192.32595      1234.1382    
    139400  -142265.12      766.82664     -141498.29      195.47236      192.34257      1234.5019    
    139500  -142260.89      767.63627     -141493.25      195.46388      192.35915      1234.8656    
    139600  -142266.54      776.85954     -141489.69      195.45354      192.37625      1235.2294    
    139700  -142270.62      771.5085      -141499.11      195.44217      192.39456      1235.5931    
    139800  -142272.19      761.15211     -141511.03      195.42979      192.41259      1235.9568    
    139900  -142278.93      766.10006     -141512.83      195.41792      192.43093      1236.3206    
    140000  -142275.09      770.56028     -141504.53      195.40668      192.44755      1236.6843    
    140100  -142275.42      776.36403     -141499.05      195.39712      192.46397      1237.048     
    140200  -142283.3       776.79975     -141506.5       195.38768      192.47849      1237.4117    
    140300  -142286.24      763.89261     -141522.35      195.37955      192.49256      1237.7755    
    140400  -142295.26      763.22437     -141532.03      195.37149      192.50733      1238.1392    
    140500  -142292.43      762.70239     -141529.73      195.3626       192.52164      1238.5029    
    140600  -142291.45      772.27384     -141519.17      195.35561      192.53814      1238.8667    
    140700  -142290.18      775.95607     -141514.22      195.34803      192.55366      1239.2304    
    140800  -142290.41      767.70886     -141522.7       195.34295      192.57164      1239.5941    
    140900  -142299.62      763.42136     -141536.2       195.33763      192.58869      1239.9579    
    141000  -142304.45      761.12607     -141543.33      195.3324       192.60504      1240.3216    
    141100  -142305.17      766.60186     -141538.57      195.3283       192.6217       1240.6853    
    141200  -142298.29      771.06247     -141527.23      195.32615      192.63865      1241.0491    
    141300  -142294.85      774.06977     -141520.78      195.32805      192.65775      1241.4128    
    141400  -142300.48      773.48543     -141527         195.32987      192.67522      1241.7765    
    141500  -142313.07      770.36686     -141542.7       195.33709      192.69553      1242.1402    
    141600  -142317.61      763.8585      -141553.75      195.34467      192.714        1242.504     
    141700  -142313.59      765.66498     -141547.93      195.35515      192.73507      1242.8677    
    141800  -142306.91      773.63594     -141533.28      195.36549      192.75639      1243.2314    
    141900  -142302.09      775.05316     -141527.04      195.37678      192.77902      1243.5952    
    142000  -142312.11      776.67834     -141535.43      195.39136      192.80377      1243.9589    
    142100  -142319.25      767.81584     -141551.44      195.4051       192.82636      1244.3226    
    142200  -142312.19      754.78993     -141557.4       195.42335      192.85141      1244.6864    
    142300  -142316.91      770.95095     -141545.96      195.4443       192.87531      1245.0501    
    142400  -142303.88      773.12238     -141530.76      195.46914      192.90024      1245.4138    
    142500  -142309.07      780.99357     -141528.08      195.49729      192.92492      1245.7776    
    142600  -142305.61      764.09867     -141541.51      195.52807      192.94766      1246.1413    
    142700  -142314.89      761.82942     -141553.06      195.56283      192.97148      1246.505     
    142800  -142310.66      758.92538     -141551.73      195.59846      192.99422      1246.8687    
    142900  -142309.43      769.64751     -141539.78      195.63541      193.01819      1247.2325    
    143000  -142300.44      772.27661     -141528.16      195.67217      193.03937      1247.5962    
    143100  -142303.1       772.81828     -141530.28      195.71129      193.06046      1247.9599    
    143200  -142308.49      766.51752     -141541.97      195.75016      193.0784       1248.3237    
    143300  -142314.72      765.01246     -141549.7       195.79202      193.09553      1248.6874    
    143400  -142311.07      763.89151     -141547.18      195.83657      193.11233      1249.0511    
    143500  -142305.04      765.63089     -141539.41      195.881        193.12684      1249.4149    
    143600  -142302.55      768.1347      -141534.42      195.92735      193.14418      1249.7786    
    143700  -142310.28      773.38794     -141536.9       195.97193      193.16131      1250.1423    
    143800  -142313.78      769.35497     -141544.43      196.01773      193.1806       1250.5061    
    143900  -142315.28      766.15653     -141549.12      196.06204      193.1997       1250.8698    
    144000  -142309.22      761.2882      -141547.93      196.10823      193.22034      1251.2335    
    144100  -142309.21      767.90912     -141541.3       196.15545      193.24177      1251.5972    
    144200  -142313.43      774.179       -141539.25      196.20506      193.26292      1251.961     
    144300  -142310.14      766.51215     -141543.63      196.25534      193.28531      1252.3247    
    144400  -142313.88      765.40601     -141548.48      196.30507      193.30687      1252.6884    
    144500  -142316.97      767.99845     -141548.97      196.35675      193.32925      1253.0522    
    144600  -142311.95      767.56438     -141544.38      196.40815      193.35029      1253.4159    
    144700  -142305.99      767.47653     -141538.51      196.46152      193.3706       1253.7796    
    144800  -142305.96      771.71422     -141534.24      196.51444      193.39026      1254.1434    
    144900  -142302.5       770.59716     -141531.9       196.56839      193.409        1254.5071    
    145000  -142303.95      769.72369     -141534.23      196.62257      193.42706      1254.8708    
    145100  -142306.7       765.65573     -141541.04      196.67548      193.44288      1255.2346    
    145200  -142306.55      762.11559     -141544.43      196.72884      193.45764      1255.5983    
    145300  -142300.11      763.13265     -141536.98      196.7812       193.47315      1255.962     
    145400  -142295.98      772.73844     -141523.24      196.83301      193.48718      1256.3257    
    145500  -142289.81      774.34051     -141515.47      196.88446      193.49999      1256.6895    
    145600  -142290.59      770.03906     -141520.55      196.93545      193.51394      1257.0532    
    145700  -142300.65      769.35717     -141531.29      196.98257      193.52796      1257.4169    
    145800  -142298.49      765.13806     -141533.35      197.02813      193.54265      1257.7807    
    145900  -142292.15      769.71572     -141522.43      197.07078      193.55642      1258.1444    
    146000  -142282.13      774.06318     -141508.07      197.10969      193.57047      1258.5081    
    146100  -142277.54      775.13135     -141502.4       197.14661      193.58456      1258.8719    
    146200  -142278.24      767.48878     -141510.75      197.18005      193.59637      1259.2356    
    146300  -142275.61      755.92978     -141519.68      197.21314      193.60722      1259.5993    
    146400  -142278.85      762.28935     -141516.56      197.24661      193.61679      1259.963     
    146500  -142272.39      767.19363     -141505.19      197.27973      193.62386      1260.3268    
    146600  -142269.4       774.6621      -141494.73      197.31284      193.62885      1260.6905    
    146700  -142262.17      768.52181     -141493.65      197.34661      193.63256      1261.0542    
    146800  -142274.15      769.83831     -141504.31      197.3769       193.63118      1261.418     
    146900  -142279.94      764.1069      -141515.83      197.40766      193.62909      1261.7817    
    147000  -142276.55      760.59096     -141515.96      197.43589      193.62535      1262.1454    
    147100  -142271.01      766.87617     -141504.13      197.46157      193.62061      1262.5092    
    147200  -142263.94      772.96659     -141490.97      197.48605      193.61561      1262.8729    
    147300  -142270.65      777.81759     -141492.83      197.50875      193.60932      1263.2366    
    147400  -142272.5       766.23109     -141506.27      197.53077      193.60282      1263.6004    
    147500  -142279.22      763.33309     -141515.89      197.54908      193.59625      1263.9641    
    147600  -142281.34      767.28215     -141514.06      197.56682      193.58859      1264.3278    
    147700  -142274.67      769.9491      -141504.72      197.58419      193.57946      1264.6915    
    147800  -142274.28      776.70269     -141497.57      197.59924      193.5704       1265.0553    
    147900  -142274.46      774.552       -141499.91      197.61252      193.56216      1265.419     
    148000  -142275.4       764.9862      -141510.41      197.62297      193.55019      1265.7827    
    148100  -142276.1       758.05883     -141518.04      197.63553      193.53924      1266.1465    
    148200  -142282.4       767.84924     -141514.55      197.6453       193.52732      1266.5102    
    148300  -142271.73      769.04279     -141502.69      197.65721      193.51705      1266.8739    
    148400  -142255.29      762.6989      -141492.6       197.66992      193.50658      1267.2377    
    148500  -142268.09      775.87495     -141492.22      197.68126      193.49535      1267.6014    
    148600  -142269.7       768.86465     -141500.84      197.69398      193.48703      1267.9651    
    148700  -142275.52      765.45308     -141510.06      197.70077      193.47491      1268.3289    
    148800  -142268.03      757.8017      -141510.23      197.71088      193.46485      1268.6926    
    148900  -142262.23      762.72333     -141499.51      197.71819      193.4531       1269.0563    
    149000  -142256.72      770.91989     -141485.8       197.72788      193.44308      1269.42      
    149100  -142251.64      769.39795     -141482.24      197.73535      193.43254      1269.7838    
