LAMMPS data file via write_data, version 2 Aug 2023, timestep = 0, units = metal

4860 atoms
3 atom types

-100 100 xlo xhi
-100 100 ylo yhi
-2.1416495 121.5267775 zlo zhi

Masses

1 12.0107
2 12.0107
3 12.0107

Atoms # atomic

9 1 -1.048082 -9.971834 0 0 0 0
10 1 -2.425693 -9.728924 0 0 0 0
11 1 -5.013381 -8.68343 0 0 0 0
12 1 -6.173091 -7.901196 0 0 0 0
13 1 -8.11182 -5.893582 0 0 0 0
14 1 -8.853105 -4.707279 0 0 0 0
15 1 -9.807653 -2.084681 0 0 0 0
16 1 -10.002337 -0.699432 0 0 0 0
17 1 -9.807653 2.084681 0 0 0 0
18 1 -9.422074 3.429354 0 0 0 0
19 1 -8.11182 5.893582 0 0 0 0
20 1 -7.212649 6.965174 0 0 0 0
21 1 -5.013381 8.68343 0 0 0 0
22 1 -3.756091 9.296651 0 0 0 0
23 1 -1.048082 9.971834 0 0 0 0
38 1 -0.349929 -10.020653 1.212436 0 0 0
39 1 -3.09844 -9.536017 1.212436 0 0 0
40 1 -4.395443 -9.011993 1.212436 0 0 0
41 1 -6.709213 -7.451336 1.212436 0 0 0
42 1 -7.680945 -6.445078 1.212436 0 0 0
43 1 -9.159902 -4.078251 1.212436 0 0 0
44 1 -9.638342 -2.76375 1.212436 0 0 0
45 1 -10.026761 0 1.212436 0 0 0
46 1 -9.929182 1.395455 1.212436 0 0 0
47 1 -9.159902 4.078251 1.212436 0 0 0
48 1 -8.503176 5.313374 1.212436 0 0 0
49 1 -6.709213 7.451336 1.212436 0 0 0
50 1 -5.606894 8.312562 1.212436 0 0 0
51 1 -3.09844 9.536017 1.212436 0 0 0
52 1 -1.741129 9.874432 1.212436 0 0 0
67 1 -1.048082 -9.971834 2.424871 0 0 0
68 1 -2.425693 -9.728924 2.424871 0 0 0
69 1 -5.013381 -8.68343 2.424871 0 0 0
70 1 -6.173091 -7.901196 2.424871 0 0 0
71 1 -8.11182 -5.893582 2.424871 0 0 0
72 1 -8.853105 -4.707279 2.424871 0 0 0
73 1 -9.807653 -2.084681 2.424871 0 0 0
74 1 -10.002337 -0.699432 2.424871 0 0 0
75 1 -9.807653 2.084681 2.424871 0 0 0
76 1 -9.422074 3.429354 2.424871 0 0 0
77 1 -8.11182 5.893582 2.424871 0 0 0
78 1 -7.212649 6.965174 2.424871 0 0 0
79 1 -5.013381 8.68343 2.424871 0 0 0
80 1 -3.756091 9.296651 2.424871 0 0 0
81 1 -1.048082 9.971834 2.424871 0 0 0
96 1 -0.349929 -10.020653 3.637307 0 0 0
97 1 -3.09844 -9.536017 3.637307 0 0 0
98 1 -4.395443 -9.011993 3.637307 0 0 0
99 1 -6.709213 -7.451336 3.637307 0 0 0
100 1 -7.680945 -6.445078 3.637307 0 0 0
101 1 -9.159902 -4.078251 3.637307 0 0 0
102 1 -9.638342 -2.76375 3.637307 0 0 0
103 1 -10.026761 0 3.637307 0 0 0
104 1 -9.929182 1.395455 3.637307 0 0 0
105 1 -9.159902 4.078251 3.637307 0 0 0
106 1 -8.503176 5.313374 3.637307 0 0 0
107 1 -6.709213 7.451336 3.637307 0 0 0
108 1 -5.606894 8.312562 3.637307 0 0 0
109 1 -3.09844 9.536017 3.637307 0 0 0
110 1 -1.741129 9.874432 3.637307 0 0 0
125 1 -1.048082 -9.971834 4.849742 0 0 0
126 1 -2.425693 -9.728924 4.849742 0 0 0
127 1 -5.013381 -8.68343 4.849742 0 0 0
128 1 -6.173091 -7.901196 4.849742 0 0 0
129 1 -8.11182 -5.893582 4.849742 0 0 0
130 1 -8.853105 -4.707279 4.849742 0 0 0
131 1 -9.807653 -2.084681 4.849742 0 0 0
132 1 -10.002337 -0.699432 4.849742 0 0 0
133 1 -9.807653 2.084681 4.849742 0 0 0
134 1 -9.422074 3.429354 4.849742 0 0 0
135 1 -8.11182 5.893582 4.849742 0 0 0
136 1 -7.212649 6.965174 4.849742 0 0 0
137 1 -5.013381 8.68343 4.849742 0 0 0
138 1 -3.756091 9.296651 4.849742 0 0 0
139 1 -1.048082 9.971834 4.849742 0 0 0
154 1 -0.349929 -10.020653 6.062178 0 0 0
155 1 -3.09844 -9.536017 6.062178 0 0 0
156 1 -4.395443 -9.011993 6.062178 0 0 0
157 1 -6.709213 -7.451336 6.062178 0 0 0
158 1 -7.680945 -6.445078 6.062178 0 0 0
159 1 -9.159902 -4.078251 6.062178 0 0 0
160 1 -9.638342 -2.76375 6.062178 0 0 0
161 1 -10.026761 0 6.062178 0 0 0
162 1 -9.929182 1.395455 6.062178 0 0 0
163 1 -9.159902 4.078251 6.062178 0 0 0
164 1 -8.503176 5.313374 6.062178 0 0 0
165 1 -6.709213 7.451336 6.062178 0 0 0
166 1 -5.606894 8.312562 6.062178 0 0 0
167 1 -3.09844 9.536017 6.062178 0 0 0
168 1 -1.741129 9.874432 6.062178 0 0 0
183 1 -1.048082 -9.971834 7.274613 0 0 0
184 1 -2.425693 -9.728924 7.274613 0 0 0
185 1 -5.013381 -8.68343 7.274613 0 0 0
186 1 -6.173091 -7.901196 7.274613 0 0 0
187 1 -8.11182 -5.893582 7.274613 0 0 0
188 1 -8.853105 -4.707279 7.274613 0 0 0
189 1 -9.807653 -2.084681 7.274613 0 0 0
190 1 -10.002337 -0.699432 7.274613 0 0 0
191 1 -9.807653 2.084681 7.274613 0 0 0
192 1 -9.422074 3.429354 7.274613 0 0 0
193 1 -8.11182 5.893582 7.274613 0 0 0
194 1 -7.212649 6.965174 7.274613 0 0 0
195 1 -5.013381 8.68343 7.274613 0 0 0
196 1 -3.756091 9.296651 7.274613 0 0 0
197 1 -1.048082 9.971834 7.274613 0 0 0
212 1 -0.349929 -10.020653 8.487049 0 0 0
213 1 -3.09844 -9.536017 8.487049 0 0 0
214 1 -4.395443 -9.011993 8.487049 0 0 0
215 1 -6.709213 -7.451336 8.487049 0 0 0
216 1 -7.680945 -6.445078 8.487049 0 0 0
217 1 -9.159902 -4.078251 8.487049 0 0 0
218 1 -9.638342 -2.76375 8.487049 0 0 0
219 1 -10.026761 0 8.487049 0 0 0
220 1 -9.929182 1.395455 8.487049 0 0 0
221 1 -9.159902 4.078251 8.487049 0 0 0
222 1 -8.503176 5.313374 8.487049 0 0 0
223 1 -6.709213 7.451336 8.487049 0 0 0
224 1 -5.606894 8.312562 8.487049 0 0 0
225 1 -3.09844 9.536017 8.487049 0 0 0
226 1 -1.741129 9.874432 8.487049 0 0 0
241 1 -1.048082 -9.971834 9.699485 0 0 0
242 1 -2.425693 -9.728924 9.699485 0 0 0
243 1 -5.013381 -8.68343 9.699485 0 0 0
244 1 -6.173091 -7.901196 9.699485 0 0 0
245 1 -8.11182 -5.893582 9.699485 0 0 0
246 1 -8.853105 -4.707279 9.699485 0 0 0
247 1 -9.807653 -2.084681 9.699485 0 0 0
248 1 -10.002337 -0.699432 9.699485 0 0 0
249 1 -9.807653 2.084681 9.699485 0 0 0
250 1 -9.422074 3.429354 9.699485 0 0 0
251 1 -8.11182 5.893582 9.699485 0 0 0
252 1 -7.212649 6.965174 9.699485 0 0 0
253 1 -5.013381 8.68343 9.699485 0 0 0
254 1 -3.756091 9.296651 9.699485 0 0 0
255 1 -1.048082 9.971834 9.699485 0 0 0
271 1 -3.09844 -9.536017 10.91192 0 0 0
272 1 -4.395443 -9.011993 10.91192 0 0 0
273 1 -6.709213 -7.451336 10.91192 0 0 0
274 1 -7.680945 -6.445078 10.91192 0 0 0
275 1 -9.159902 -4.078251 10.91192 0 0 0
276 1 -9.638342 -2.76375 10.91192 0 0 0
277 1 -10.026761 0 10.91192 0 0 0
278 1 -9.929182 1.395455 10.91192 0 0 0
279 1 -9.159902 4.078251 10.91192 0 0 0
280 1 -8.503176 5.313374 10.91192 0 0 0
281 1 -6.709213 7.451336 10.91192 0 0 0
282 1 -5.606894 8.312562 10.91192 0 0 0
283 1 -3.09844 9.536017 10.91192 0 0 0
284 1 -1.741129 9.874432 10.91192 0 0 0
300 1 -0.349929 -10.020653 10.91192 0 0 0
301 1 -5.013381 -8.68343 12.124356 0 0 0
302 1 -6.173091 -7.901196 12.124356 0 0 0
303 1 -8.11182 -5.893582 12.124356 0 0 0
304 1 -8.853105 -4.707279 12.124356 0 0 0
305 1 -9.807653 -2.084681 12.124356 0 0 0
306 1 -10.002337 -0.699432 12.124356 0 0 0
307 1 -9.807653 2.084681 12.124356 0 0 0
308 1 -9.422074 3.429354 12.124356 0 0 0
309 1 -8.11182 5.893582 12.124356 0 0 0
310 1 -7.212649 6.965174 12.124356 0 0 0
311 1 -5.013381 8.68343 12.124356 0 0 0
312 1 -3.756091 9.296651 12.124356 0 0 0
313 1 -1.048082 9.971834 12.124356 0 0 0
329 1 -1.048082 -9.971834 12.124356 0 0 0
330 1 -2.425693 -9.728924 12.124356 0 0 0
331 1 -6.709213 -7.451336 13.336791 0 0 0
332 1 -7.680945 -6.445078 13.336791 0 0 0
333 1 -9.159902 -4.078251 13.336791 0 0 0
334 1 -9.638342 -2.76375 13.336791 0 0 0
335 1 -10.026761 0 13.336791 0 0 0
336 1 -9.929182 1.395455 13.336791 0 0 0
337 1 -9.159902 4.078251 13.336791 0 0 0
338 1 -8.503176 5.313374 13.336791 0 0 0
339 1 -6.709213 7.451336 13.336791 0 0 0
340 1 -5.606894 8.312562 13.336791 0 0 0
341 1 -3.09844 9.536017 13.336791 0 0 0
342 1 -1.741129 9.874432 13.336791 0 0 0
358 1 -0.349929 -10.020653 13.336791 0 0 0
359 1 -3.09844 -9.536017 13.336791 0 0 0
360 1 -4.395443 -9.011993 13.336791 0 0 0
361 1 -8.11182 -5.893582 14.549227 0 0 0
362 1 -8.853105 -4.707279 14.549227 0 0 0
363 1 -9.807653 -2.084681 14.549227 0 0 0
364 1 -10.002337 -0.699432 14.549227 0 0 0
365 1 -9.807653 2.084681 14.549227 0 0 0
366 1 -9.422074 3.429354 14.549227 0 0 0
367 1 -8.11182 5.893582 14.549227 0 0 0
368 1 -7.212649 6.965174 14.549227 0 0 0
369 1 -5.013381 8.68343 14.549227 0 0 0
370 1 -3.756091 9.296651 14.549227 0 0 0
371 1 -1.048082 9.971834 14.549227 0 0 0
387 1 -1.048082 -9.971834 14.549227 0 0 0
388 1 -2.425693 -9.728924 14.549227 0 0 0
389 1 -5.013381 -8.68343 14.549227 0 0 0
390 1 -6.173091 -7.901196 14.549227 0 0 0
391 1 -9.159902 -4.078251 15.761662 0 0 0
392 1 -9.638342 -2.76375 15.761662 0 0 0
393 1 -10.026761 0 15.761662 0 0 0
394 1 -9.929182 1.395455 15.761662 0 0 0
395 1 -9.159902 4.078251 15.761662 0 0 0
396 1 -8.503176 5.313374 15.761662 0 0 0
397 1 -6.709213 7.451336 15.761662 0 0 0
398 1 -5.606894 8.312562 15.761662 0 0 0
399 1 -3.09844 9.536017 15.761662 0 0 0
400 1 -1.741129 9.874432 15.761662 0 0 0
416 1 -0.349929 -10.020653 15.761662 0 0 0
417 1 -3.09844 -9.536017 15.761662 0 0 0
418 1 -4.395443 -9.011993 15.761662 0 0 0
419 1 -6.709213 -7.451336 15.761662 0 0 0
420 1 -7.680945 -6.445078 15.761662 0 0 0
421 1 -9.807653 -2.084681 16.974098 0 0 0
422 1 -10.002337 -0.699432 16.974098 0 0 0
423 1 -9.807653 2.084681 16.974098 0 0 0
424 1 -9.422074 3.429354 16.974098 0 0 0
425 1 -8.11182 5.893582 16.974098 0 0 0
426 1 -7.212649 6.965174 16.974098 0 0 0
427 1 -5.013381 8.68343 16.974098 0 0 0
428 1 -3.756091 9.296651 16.974098 0 0 0
429 1 -1.048082 9.971834 16.974098 0 0 0
445 1 -1.048082 -9.971834 16.974098 0 0 0
446 1 -2.425693 -9.728924 16.974098 0 0 0
447 1 -5.013381 -8.68343 16.974098 0 0 0
448 1 -6.173091 -7.901196 16.974098 0 0 0
449 1 -8.11182 -5.893582 16.974098 0 0 0
450 1 -8.853105 -4.707279 16.974098 0 0 0
451 1 -10.026761 0 18.186533 0 0 0
452 1 -9.929182 1.395455 18.186533 0 0 0
453 1 -9.159902 4.078251 18.186533 0 0 0
454 1 -8.503176 5.313374 18.186533 0 0 0
455 1 -6.709213 7.451336 18.186533 0 0 0
456 1 -5.606894 8.312562 18.186533 0 0 0
457 1 -3.09844 9.536017 18.186533 0 0 0
458 1 -1.741129 9.874432 18.186533 0 0 0
474 1 -0.349929 -10.020653 18.186533 0 0 0
475 1 -3.09844 -9.536017 18.186533 0 0 0
476 1 -4.395443 -9.011993 18.186533 0 0 0
477 1 -6.709213 -7.451336 18.186533 0 0 0
478 1 -7.680945 -6.445078 18.186533 0 0 0
479 1 -9.159902 -4.078251 18.186533 0 0 0
480 1 -9.638342 -2.76375 18.186533 0 0 0
481 1 -9.807653 2.084681 19.398969 0 0 0
482 1 -9.422074 3.429354 19.398969 0 0 0
483 1 -8.11182 5.893582 19.398969 0 0 0
484 1 -7.212649 6.965174 19.398969 0 0 0
485 1 -5.013381 8.68343 19.398969 0 0 0
486 1 -3.756091 9.296651 19.398969 0 0 0
487 1 -1.048082 9.971834 19.398969 0 0 0
503 1 -1.048082 -9.971834 19.398969 0 0 0
504 1 -2.425693 -9.728924 19.398969 0 0 0
505 1 -5.013381 -8.68343 19.398969 0 0 0
506 1 -6.173091 -7.901196 19.398969 0 0 0
507 1 -8.11182 -5.893582 19.398969 0 0 0
508 1 -8.853105 -4.707279 19.398969 0 0 0
509 1 -9.807653 -2.084681 19.398969 0 0 0
510 1 -10.002337 -0.699432 19.398969 0 0 0
511 1 -9.159902 4.078251 20.611405 0 0 0
512 1 -8.503176 5.313374 20.611405 0 0 0
513 1 -6.709213 7.451336 20.611405 0 0 0
514 1 -5.606894 8.312562 20.611405 0 0 0
515 1 -3.09844 9.536017 20.611405 0 0 0
516 1 -1.741129 9.874432 20.611405 0 0 0
532 1 -0.349929 -10.020653 20.611405 0 0 0
533 1 -3.09844 -9.536017 20.611405 0 0 0
534 1 -4.395443 -9.011993 20.611405 0 0 0
535 1 -6.709213 -7.451336 20.611405 0 0 0
536 1 -7.680945 -6.445078 20.611405 0 0 0
537 1 -9.159902 -4.078251 20.611405 0 0 0
538 1 -9.638342 -2.76375 20.611405 0 0 0
539 1 -10.026761 0 20.611405 0 0 0
540 1 -9.929182 1.395455 20.611405 0 0 0
541 1 -8.11182 5.893582 21.82384 0 0 0
542 1 -7.212649 6.965174 21.82384 0 0 0
543 1 -5.013381 8.68343 21.82384 0 0 0
544 1 -3.756091 9.296651 21.82384 0 0 0
545 1 -1.048082 9.971834 21.82384 0 0 0
561 1 -1.048082 -9.971834 21.82384 0 0 0
562 1 -2.425693 -9.728924 21.82384 0 0 0
563 1 -5.013381 -8.68343 21.82384 0 0 0
564 1 -6.173091 -7.901196 21.82384 0 0 0
565 1 -8.11182 -5.893582 21.82384 0 0 0
566 1 -8.853105 -4.707279 21.82384 0 0 0
567 1 -9.807653 -2.084681 21.82384 0 0 0
568 1 -10.002337 -0.699432 21.82384 0 0 0
569 1 -9.807653 2.084681 21.82384 0 0 0
570 1 -9.422074 3.429354 21.82384 0 0 0
571 1 -6.709213 7.451336 23.036276 0 0 0
572 1 -5.606894 8.312562 23.036276 0 0 0
573 1 -3.09844 9.536017 23.036276 0 0 0
574 1 -1.741129 9.874432 23.036276 0 0 0
590 1 -0.349929 -10.020653 23.036276 0 0 0
591 1 -3.09844 -9.536017 23.036276 0 0 0
592 1 -4.395443 -9.011993 23.036276 0 0 0
593 1 -6.709213 -7.451336 23.036276 0 0 0
594 1 -7.680945 -6.445078 23.036276 0 0 0
595 1 -9.159902 -4.078251 23.036276 0 0 0
596 1 -9.638342 -2.76375 23.036276 0 0 0
597 1 -10.026761 0 23.036276 0 0 0
598 1 -9.929182 1.395455 23.036276 0 0 0
599 1 -9.159902 4.078251 23.036276 0 0 0
600 1 -8.503176 5.313374 23.036276 0 0 0
601 1 -5.013381 8.68343 24.248711 0 0 0
602 1 -3.756091 9.296651 24.248711 0 0 0
603 1 -1.048082 9.971834 24.248711 0 0 0
619 1 -1.048082 -9.971834 24.248711 0 0 0
620 1 -2.425693 -9.728924 24.248711 0 0 0
621 1 -5.013381 -8.68343 24.248711 0 0 0
622 1 -6.173091 -7.901196 24.248711 0 0 0
623 1 -8.11182 -5.893582 24.248711 0 0 0
624 1 -8.853105 -4.707279 24.248711 0 0 0
625 1 -9.807653 -2.084681 24.248711 0 0 0
626 1 -10.002337 -0.699432 24.248711 0 0 0
627 1 -9.807653 2.084681 24.248711 0 0 0
628 1 -9.422074 3.429354 24.248711 0 0 0
629 1 -8.11182 5.893582 24.248711 0 0 0
630 1 -7.212649 6.965174 24.248711 0 0 0
631 1 -3.09844 9.536017 25.461147 0 0 0
632 1 -1.741129 9.874432 25.461147 0 0 0
648 1 -0.349929 -10.020653 25.461147 0 0 0
649 1 -3.09844 -9.536017 25.461147 0 0 0
650 1 -4.395443 -9.011993 25.461147 0 0 0
651 1 -6.709213 -7.451336 25.461147 0 0 0
652 1 -7.680945 -6.445078 25.461147 0 0 0
653 1 -9.159902 -4.078251 25.461147 0 0 0
654 1 -9.638342 -2.76375 25.461147 0 0 0
655 1 -10.026761 0 25.461147 0 0 0
656 1 -9.929182 1.395455 25.461147 0 0 0
657 1 -9.159902 4.078251 25.461147 0 0 0
658 1 -8.503176 5.313374 25.461147 0 0 0
659 1 -6.709213 7.451336 25.461147 0 0 0
660 1 -5.606894 8.312562 25.461147 0 0 0
661 1 -1.048082 9.971834 26.673582 0 0 0
677 1 -1.048082 -9.971834 26.673582 0 0 0
678 1 -2.425693 -9.728924 26.673582 0 0 0
679 1 -5.013381 -8.68343 26.673582 0 0 0
680 1 -6.173091 -7.901196 26.673582 0 0 0
681 1 -8.11182 -5.893582 26.673582 0 0 0
682 1 -8.853105 -4.707279 26.673582 0 0 0
683 1 -9.807653 -2.084681 26.673582 0 0 0
684 1 -10.002337 -0.699432 26.673582 0 0 0
685 1 -9.807653 2.084681 26.673582 0 0 0
686 1 -9.422074 3.429354 26.673582 0 0 0
687 1 -8.11182 5.893582 26.673582 0 0 0
688 1 -7.212649 6.965174 26.673582 0 0 0
689 1 -5.013381 8.68343 26.673582 0 0 0
690 1 -3.756091 9.296651 26.673582 0 0 0
706 1 -0.349929 -10.020653 27.886018 0 0 0
707 1 -3.09844 -9.536017 27.886018 0 0 0
708 1 -4.395443 -9.011993 27.886018 0 0 0
709 1 -6.709213 -7.451336 27.886018 0 0 0
710 1 -7.680945 -6.445078 27.886018 0 0 0
711 1 -9.159902 -4.078251 27.886018 0 0 0
712 1 -9.638342 -2.76375 27.886018 0 0 0
713 1 -10.026761 0 27.886018 0 0 0
714 1 -9.929182 1.395455 27.886018 0 0 0
715 1 -9.159902 4.078251 27.886018 0 0 0
716 1 -8.503176 5.313374 27.886018 0 0 0
717 1 -6.709213 7.451336 27.886018 0 0 0
718 1 -5.606894 8.312562 27.886018 0 0 0
719 1 -3.09844 9.536017 27.886018 0 0 0
720 1 -1.741129 9.874432 27.886018 0 0 0
735 1 -1.048082 -9.971834 29.098454 0 0 0
736 1 -2.425693 -9.728924 29.098454 0 0 0
737 1 -5.013381 -8.68343 29.098454 0 0 0
738 1 -6.173091 -7.901196 29.098454 0 0 0
739 1 -8.11182 -5.893582 29.098454 0 0 0
740 1 -8.853105 -4.707279 29.098454 0 0 0
741 1 -9.807653 -2.084681 29.098454 0 0 0
742 1 -10.002337 -0.699432 29.098454 0 0 0
743 1 -9.807653 2.084681 29.098454 0 0 0
744 1 -9.422074 3.429354 29.098454 0 0 0
745 1 -8.11182 5.893582 29.098454 0 0 0
746 1 -7.212649 6.965174 29.098454 0 0 0
747 1 -5.013381 8.68343 29.098454 0 0 0
748 1 -3.756091 9.296651 29.098454 0 0 0
749 1 -1.048082 9.971834 29.098454 0 0 0
764 1 -0.349929 -10.020653 30.310889 0 0 0
765 1 -3.09844 -9.536017 30.310889 0 0 0
766 1 -4.395443 -9.011993 30.310889 0 0 0
767 1 -6.709213 -7.451336 30.310889 0 0 0
768 1 -7.680945 -6.445078 30.310889 0 0 0
769 1 -9.159902 -4.078251 30.310889 0 0 0
770 1 -9.638342 -2.76375 30.310889 0 0 0
771 1 -10.026761 0 30.310889 0 0 0
772 1 -9.929182 1.395455 30.310889 0 0 0
773 1 -9.159902 4.078251 30.310889 0 0 0
774 1 -8.503176 5.313374 30.310889 0 0 0
775 1 -6.709213 7.451336 30.310889 0 0 0
776 1 -5.606894 8.312562 30.310889 0 0 0
777 1 -3.09844 9.536017 30.310889 0 0 0
778 1 -1.741129 9.874432 30.310889 0 0 0
793 1 -1.048082 -9.971834 31.523325 0 0 0
794 1 -2.425693 -9.728924 31.523325 0 0 0
795 1 -5.013381 -8.68343 31.523325 0 0 0
796 1 -6.173091 -7.901196 31.523325 0 0 0
797 1 -8.11182 -5.893582 31.523325 0 0 0
798 1 -8.853105 -4.707279 31.523325 0 0 0
799 1 -9.807653 -2.084681 31.523325 0 0 0
800 1 -10.002337 -0.699432 31.523325 0 0 0
801 1 -9.807653 2.084681 31.523325 0 0 0
802 1 -9.422074 3.429354 31.523325 0 0 0
803 1 -8.11182 5.893582 31.523325 0 0 0
804 1 -7.212649 6.965174 31.523325 0 0 0
805 1 -5.013381 8.68343 31.523325 0 0 0
806 1 -3.756091 9.296651 31.523325 0 0 0
807 1 -1.048082 9.971834 31.523325 0 0 0
822 1 -0.349929 -10.020653 32.73576 0 0 0
823 1 -3.09844 -9.536017 32.73576 0 0 0
824 1 -4.395443 -9.011993 32.73576 0 0 0
825 1 -6.709213 -7.451336 32.73576 0 0 0
826 1 -7.680945 -6.445078 32.73576 0 0 0
827 1 -9.159902 -4.078251 32.73576 0 0 0
828 1 -9.638342 -2.76375 32.73576 0 0 0
829 1 -10.026761 0 32.73576 0 0 0
830 1 -9.929182 1.395455 32.73576 0 0 0
831 1 -9.159902 4.078251 32.73576 0 0 0
832 1 -8.503176 5.313374 32.73576 0 0 0
833 1 -6.709213 7.451336 32.73576 0 0 0
834 1 -5.606894 8.312562 32.73576 0 0 0
835 1 -3.09844 9.536017 32.73576 0 0 0
836 1 -1.741129 9.874432 32.73576 0 0 0
851 1 -1.048082 -9.971834 33.948196 0 0 0
852 1 -2.425693 -9.728924 33.948196 0 0 0
853 1 -5.013381 -8.68343 33.948196 0 0 0
854 1 -6.173091 -7.901196 33.948196 0 0 0
855 1 -8.11182 -5.893582 33.948196 0 0 0
856 1 -8.853105 -4.707279 33.948196 0 0 0
857 1 -9.807653 -2.084681 33.948196 0 0 0
858 1 -10.002337 -0.699432 33.948196 0 0 0
859 1 -9.807653 2.084681 33.948196 0 0 0
860 1 -9.422074 3.429354 33.948196 0 0 0
861 1 -8.11182 5.893582 33.948196 0 0 0
862 1 -7.212649 6.965174 33.948196 0 0 0
863 1 -5.013381 8.68343 33.948196 0 0 0
864 1 -3.756091 9.296651 33.948196 0 0 0
865 1 -1.048082 9.971834 33.948196 0 0 0
880 1 -0.349929 -10.020653 35.160631 0 0 0
881 1 -3.09844 -9.536017 35.160631 0 0 0
882 1 -4.395443 -9.011993 35.160631 0 0 0
883 1 -6.709213 -7.451336 35.160631 0 0 0
884 1 -7.680945 -6.445078 35.160631 0 0 0
885 1 -9.159902 -4.078251 35.160631 0 0 0
886 1 -9.638342 -2.76375 35.160631 0 0 0
887 1 -10.026761 0 35.160631 0 0 0
888 1 -9.929182 1.395455 35.160631 0 0 0
889 1 -9.159902 4.078251 35.160631 0 0 0
890 1 -8.503176 5.313374 35.160631 0 0 0
891 1 -6.709213 7.451336 35.160631 0 0 0
892 1 -5.606894 8.312562 35.160631 0 0 0
893 1 -3.09844 9.536017 35.160631 0 0 0
894 1 -1.741129 9.874432 35.160631 0 0 0
909 1 -1.048082 -9.971834 36.373067 0 0 0
910 1 -2.425693 -9.728924 36.373067 0 0 0
911 1 -5.013381 -8.68343 36.373067 0 0 0
912 1 -6.173091 -7.901196 36.373067 0 0 0
913 1 -8.11182 -5.893582 36.373067 0 0 0
914 1 -8.853105 -4.707279 36.373067 0 0 0
915 1 -9.807653 -2.084681 36.373067 0 0 0
916 1 -10.002337 -0.699432 36.373067 0 0 0
917 1 -9.807653 2.084681 36.373067 0 0 0
918 1 -9.422074 3.429354 36.373067 0 0 0
919 1 -8.11182 5.893582 36.373067 0 0 0
920 1 -7.212649 6.965174 36.373067 0 0 0
921 1 -5.013381 8.68343 36.373067 0 0 0
922 1 -3.756091 9.296651 36.373067 0 0 0
923 1 -1.048082 9.971834 36.373067 0 0 0
938 1 -0.349929 -10.020653 37.585503 0 0 0
939 1 -3.09844 -9.536017 37.585503 0 0 0
940 1 -4.395443 -9.011993 37.585503 0 0 0
941 1 -6.709213 -7.451336 37.585503 0 0 0
942 1 -7.680945 -6.445078 37.585503 0 0 0
943 1 -9.159902 -4.078251 37.585503 0 0 0
944 1 -9.638342 -2.76375 37.585503 0 0 0
945 1 -10.026761 0 37.585503 0 0 0
946 1 -9.929182 1.395455 37.585503 0 0 0
947 1 -9.159902 4.078251 37.585503 0 0 0
948 1 -8.503176 5.313374 37.585503 0 0 0
949 1 -6.709213 7.451336 37.585503 0 0 0
950 1 -5.606894 8.312562 37.585503 0 0 0
951 1 -3.09844 9.536017 37.585503 0 0 0
952 1 -1.741129 9.874432 37.585503 0 0 0
967 1 -1.048082 -9.971834 38.797938 0 0 0
968 1 -2.425693 -9.728924 38.797938 0 0 0
969 1 -5.013381 -8.68343 38.797938 0 0 0
970 1 -6.173091 -7.901196 38.797938 0 0 0
971 1 -8.11182 -5.893582 38.797938 0 0 0
972 1 -8.853105 -4.707279 38.797938 0 0 0
973 1 -9.807653 -2.084681 38.797938 0 0 0
974 1 -10.002337 -0.699432 38.797938 0 0 0
975 1 -9.807653 2.084681 38.797938 0 0 0
976 1 -9.422074 3.429354 38.797938 0 0 0
977 1 -8.11182 5.893582 38.797938 0 0 0
978 1 -7.212649 6.965174 38.797938 0 0 0
979 1 -5.013381 8.68343 38.797938 0 0 0
980 1 -3.756091 9.296651 38.797938 0 0 0
981 1 -1.048082 9.971834 38.797938 0 0 0
996 1 -0.349929 -10.020653 40.010374 0 0 0
997 1 -3.09844 -9.536017 40.010374 0 0 0
998 1 -4.395443 -9.011993 40.010374 0 0 0
999 1 -6.709213 -7.451336 40.010374 0 0 0
1000 1 -7.680945 -6.445078 40.010374 0 0 0
1001 1 -9.159902 -4.078251 40.010374 0 0 0
1002 1 -9.638342 -2.76375 40.010374 0 0 0
1003 1 -10.026761 0 40.010374 0 0 0
1004 1 -9.929182 1.395455 40.010374 0 0 0
1005 1 -9.159902 4.078251 40.010374 0 0 0
1006 1 -8.503176 5.313374 40.010374 0 0 0
1007 1 -6.709213 7.451336 40.010374 0 0 0
1008 1 -5.606894 8.312562 40.010374 0 0 0
1009 1 -3.09844 9.536017 40.010374 0 0 0
1010 1 -1.741129 9.874432 40.010374 0 0 0
1081 3 -1.690103 3.436583 6.700638 0 0 0
1082 3 -0.818803 3.022583 5.705038 0 0 0
1083 3 -2.578003 2.536183 7.281138 0 0 0
1084 3 -0.844803 1.702583 5.278638 0 0 0
1085 3 -0.753203 1.412483 3.920238 0 0 0
1086 3 -0.706303 4.056583 4.781438 0 0 0
1087 3 -0.613803 3.760883 3.427338 0 0 0
1088 3 -0.637403 2.443683 2.992538 0 0 0
1089 3 -4.295903 4.198683 7.240338 0 0 0
1090 3 -3.420303 5.107783 6.667438 0 0 0
1091 3 -3.886203 2.909283 7.551138 0 0 0
1092 3 -2.112403 4.724983 6.396238 0 0 0
1093 3 -1.504703 5.113583 5.212238 0 0 0
1094 3 -4.119903 5.872783 5.745838 0 0 0
1095 3 -3.519203 6.251383 4.550538 0 0 0
1096 3 -2.205003 5.873783 4.283938 0 0 0
1097 3 -5.946903 2.023483 6.708738 0 0 0
1098 3 -6.367703 3.312383 6.398638 0 0 0
1099 3 -4.701503 1.820783 7.287038 0 0 0
1100 3 -5.544003 4.399283 6.664438 0 0 0
1101 3 -5.440903 5.431783 5.745138 0 0 0
1102 3 -7.088003 3.252083 5.213938 0 0 0
1103 3 -6.979303 4.286983 4.287838 0 0 0
1104 3 -6.151303 5.375083 4.553138 0 0 0
1105 3 -4.347403 -0.067317 5.849738 0 0 0
1106 3 -5.599603 0.133583 5.276938 0 0 0
1107 3 -3.895903 0.777583 6.858538 0 0 0
1108 3 -6.405203 1.180983 5.707438 0 0 0
1109 3 -7.116803 1.931883 4.783338 0 0 0
1110 3 -5.510903 -0.160117 3.923538 0 0 0
1111 3 -6.210803 0.602083 2.996238 0 0 0
1112 3 -7.020903 1.651083 3.425438 0 0 0
1113 3 -1.720203 0.790683 5.849038 0 0 0
1114 3 -2.167103 -0.054917 4.842538 0 0 0
1115 3 -2.578103 1.209383 6.856738 0 0 0
1116 3 -3.488803 -0.486717 4.843438 0 0 0
1117 3 -4.200603 -0.544417 3.653838 0 0 0
1118 3 -1.567703 0.320983 3.649238 0 0 0
1119 3 -2.277603 0.274183 2.455238 0 0 0
1120 3 -3.600603 -0.159417 2.460138 0 0 0
1121 3 -6.039403 2.267683 1.515338 0 0 0
1122 3 -5.604603 0.976583 1.804938 0 0 0
1123 3 -4.295103 0.599083 1.528738 0 0 0
1124 3 -5.138103 3.164883 0.946138 0 0 0
1125 3 -6.009203 4.900483 2.375438 0 0 0
1126 3 -6.905103 3.999483 2.932138 0 0 0
1127 3 -6.922203 2.683083 2.502538 0 0 0
1128 3 -5.122703 4.486683 1.386138 0 0 0
1129 3 -3.352703 5.782083 2.371438 0 0 0
1130 3 -4.235403 6.202083 3.361938 0 0 0
1131 3 -5.550903 5.764583 3.364138 0 0 0
1132 3 -3.804503 4.918983 1.377738 0 0 0
1133 3 -1.759003 3.679983 1.508138 0 0 0
1134 3 -1.304903 4.538283 2.502538 0 0 0
1135 3 -2.097703 5.591183 2.930838 0 0 0
1136 3 -3.014603 3.866583 0.934638 0 0 0
1137 3 -3.410503 1.496483 0.947138 0 0 0
1138 3 -2.158303 1.297483 1.522438 0 0 0
1139 3 -1.338203 2.383683 1.796138 0 0 0
1140 3 -3.834803 2.781483 0.654738 0 0 0
1157 2 -0.679562 -5.41518 10.813543 0 0 0
1158 2 -1.100362 -4.12628 10.503443 0 0 0
1160 2 -0.276662 -3.03938 10.769243 0 0 0
1161 2 -0.173562 -2.00688 9.849943 0 0 0
1162 2 -1.820662 -4.18658 9.318743 0 0 0
1163 2 -1.711962 -3.15168 8.392643 0 0 0
1164 2 -0.883962 -2.06358 8.657943 0 0 0
1166 2 -0.332262 -7.30508 9.381743 0 0 0
1168 2 -1.137862 -6.25768 9.812243 0 0 0
1169 2 -1.849462 -5.50678 8.888143 0 0 0
1170 2 -0.243562 -7.59878 8.028343 0 0 0
1171 2 -0.943462 -6.83658 7.101043 0 0 0
1172 2 -1.753562 -5.78758 7.530243 0 0 0
1181 2 -0.772062 -5.17098 5.620143 0 0 0
1182 2 -0.337262 -6.46208 5.909743 0 0 0
1185 2 -0.741862 -2.53818 6.480243 0 0 0
1186 2 -1.637762 -3.43918 7.036943 0 0 0
1187 2 -1.654862 -4.75558 6.607343 0 0 0
1191 2 -0.283562 -1.67408 7.468943 0 0 0
1217 3 -0.494623 3.697689 14.918348 0 0 0
1218 3 -0.915423 4.986589 14.608248 0 0 0
1220 3 -0.091723 6.073489 14.874048 0 0 0
1222 3 -1.635723 4.926289 13.423548 0 0 0
1223 3 -1.527023 5.961189 12.497448 0 0 0
1224 3 -0.699023 7.049289 12.762748 0 0 0
1226 3 -0.147323 1.807789 13.486548 0 0 0
1228 3 -0.952923 2.855189 13.917048 0 0 0
1229 3 -1.664523 3.606089 12.992948 0 0 0
1230 3 -0.058623 1.514089 12.133148 0 0 0
1231 3 -0.758523 2.276289 11.205848 0 0 0
1232 3 -1.568623 3.325289 11.635048 0 0 0
1241 3 -0.587123 3.941889 9.724948 0 0 0
1242 3 -0.152323 2.650789 10.014548 0 0 0
1245 3 -0.556923 6.574689 10.585048 0 0 0
1246 3 -1.452823 5.673689 11.141748 0 0 0
1247 3 -1.469923 4.357289 10.712148 0 0 0
1251 3 -0.098623 7.438789 11.573748 0 0 0
1261 2 -1.802627 -2.108044 19.015053 0 0 0
1262 2 -0.931327 -2.522044 18.019453 0 0 0
1263 2 -2.690527 -3.008444 19.595553 0 0 0
1264 2 -0.957327 -3.842044 17.593053 0 0 0
1265 2 -0.865727 -4.132144 16.234653 0 0 0
1266 2 -0.818827 -1.488044 17.095853 0 0 0
1267 2 -0.726327 -1.783744 15.741753 0 0 0
1268 2 -0.749927 -3.100944 15.306953 0 0 0
1269 2 -4.408427 -1.345944 19.554753 0 0 0
1270 2 -3.532827 -0.436844 18.981853 0 0 0
1271 2 -3.998727 -2.635344 19.865553 0 0 0
1272 2 -2.224927 -0.819644 18.710653 0 0 0
1273 2 -1.617227 -0.431044 17.526653 0 0 0
1274 2 -4.232427 0.328156 18.060253 0 0 0
1275 2 -3.631727 0.706756 16.864953 0 0 0
1276 2 -2.317527 0.329156 16.598353 0 0 0
1277 2 -6.059427 -3.521144 19.023153 0 0 0
1278 2 -6.480227 -2.232244 18.713053 0 0 0
1279 2 -4.814027 -3.723844 19.601453 0 0 0
1280 2 -5.656527 -1.145344 18.978853 0 0 0
1281 2 -5.553427 -0.112844 18.059553 0 0 0
1282 2 -7.200527 -2.292544 17.528353 0 0 0
1283 2 -7.091827 -1.257644 16.602253 0 0 0
1284 2 -6.263827 -0.169544 16.867553 0 0 0
1285 2 -4.459927 -5.611944 18.164153 0 0 0
1286 2 -5.712127 -5.411044 17.591353 0 0 0
1287 2 -4.008427 -4.767044 19.172953 0 0 0
1288 2 -6.517727 -4.363644 18.021853 0 0 0
1289 2 -7.229327 -3.612744 17.097753 0 0 0
1290 2 -5.623427 -5.704744 16.237953 0 0 0
1291 2 -6.323327 -4.942544 15.310653 0 0 0
1292 2 -7.133427 -3.893544 15.739853 0 0 0
1293 2 -1.832727 -4.753944 18.163453 0 0 0
1294 2 -2.279627 -5.599544 17.156953 0 0 0
1295 2 -2.690627 -4.335244 19.171153 0 0 0
1296 2 -3.601327 -6.031344 17.157853 0 0 0
1297 2 -4.313127 -6.089044 15.968253 0 0 0
1298 2 -1.680227 -5.223644 15.963653 0 0 0
1299 2 -2.390127 -5.270444 14.769653 0 0 0
1300 2 -3.713127 -5.704044 14.774553 0 0 0
1301 2 -6.151927 -3.276944 13.829753 0 0 0
1302 2 -5.717127 -4.568044 14.119353 0 0 0
1303 2 -4.407627 -4.945544 13.843153 0 0 0
1304 2 -5.250627 -2.379744 13.260553 0 0 0
1305 2 -6.121727 -0.644144 14.689853 0 0 0
1306 2 -7.017627 -1.545144 15.246553 0 0 0
1307 2 -7.034727 -2.861544 14.816953 0 0 0
1308 2 -5.235227 -1.057944 13.700553 0 0 0
1309 2 -3.465227 0.237456 14.685853 0 0 0
1310 2 -4.347927 0.657456 15.676353 0 0 0
1311 2 -5.663427 0.219956 15.678553 0 0 0
1312 2 -3.917027 -0.625644 13.692153 0 0 0
1313 2 -1.871527 -1.864644 13.822553 0 0 0
1314 2 -1.417427 -1.006344 14.816953 0 0 0
1315 2 -2.210227 0.046556 15.245253 0 0 0
1316 2 -3.127127 -1.678044 13.249053 0 0 0
1317 2 -3.523027 -4.048144 13.261553 0 0 0
1318 2 -2.270827 -4.247144 13.836853 0 0 0
1319 2 -1.450727 -3.160944 14.110553 0 0 0
1320 2 -3.947327 -2.763144 12.969153 0 0 0
1381 2 -1.571224 3.590796 27.224663 0 0 0
1382 2 -0.699924 3.176796 26.229063 0 0 0
1383 2 -2.459124 2.690396 27.805163 0 0 0
1384 2 -0.725924 1.856796 25.802663 0 0 0
1385 2 -0.634324 1.566696 24.444263 0 0 0
1386 2 -0.587424 4.210796 25.305463 0 0 0
1387 2 -0.494924 3.915096 23.951363 0 0 0
1388 2 -0.518524 2.597896 23.516563 0 0 0
1389 2 -4.177024 4.352896 27.764363 0 0 0
1390 2 -3.301424 5.261996 27.191463 0 0 0
1391 2 -3.767324 3.063496 28.075163 0 0 0
1392 2 -1.993524 4.879196 26.920263 0 0 0
1393 2 -1.385824 5.267796 25.736263 0 0 0
1394 2 -4.001024 6.026996 26.269863 0 0 0
1395 2 -3.400324 6.405596 25.074563 0 0 0
1396 2 -2.086124 6.027996 24.807963 0 0 0
1397 2 -5.828024 2.177696 27.232763 0 0 0
1398 2 -6.248824 3.466596 26.922663 0 0 0
1399 2 -4.582624 1.974996 27.811063 0 0 0
1400 2 -5.425124 4.553496 27.188463 0 0 0
1401 2 -5.322024 5.585996 26.269163 0 0 0
1402 2 -6.969124 3.406296 25.737963 0 0 0
1403 2 -6.860424 4.441196 24.811863 0 0 0
1404 2 -6.032424 5.529296 25.077163 0 0 0
1405 2 -4.228524 0.086896 26.373763 0 0 0
1406 2 -5.480724 0.287796 25.800963 0 0 0
1407 2 -3.777024 0.931796 27.382563 0 0 0
1408 2 -6.286324 1.335196 26.231463 0 0 0
1409 2 -6.997924 2.086096 25.307363 0 0 0
1410 2 -5.392024 -0.005904 24.447563 0 0 0
1411 2 -6.091924 0.756296 23.520263 0 0 0
1412 2 -6.902024 1.805296 23.949463 0 0 0
1413 2 -1.601324 0.944896 26.373063 0 0 0
1414 2 -2.048224 0.099296 25.366563 0 0 0
1415 2 -2.459224 1.363596 27.380763 0 0 0
1416 2 -3.369924 -0.332504 25.367463 0 0 0
1417 2 -4.081724 -0.390204 24.177863 0 0 0
1418 2 -1.448824 0.475196 24.173263 0 0 0
1419 2 -2.158724 0.428396 22.979263 0 0 0
1420 2 -3.481724 -0.005204 22.984163 0 0 0
1421 2 -5.920524 2.421896 22.039363 0 0 0
1422 2 -5.485724 1.130796 22.328963 0 0 0
1423 2 -4.176224 0.753296 22.052763 0 0 0
1424 2 -5.019224 3.319096 21.470163 0 0 0
1425 2 -5.890324 5.054696 22.899463 0 0 0
1426 2 -6.786224 4.153696 23.456163 0 0 0
1427 2 -6.803324 2.837296 23.026563 0 0 0
1428 2 -5.003824 4.640896 21.910163 0 0 0
1429 2 -3.233824 5.936296 22.895463 0 0 0
1430 2 -4.116524 6.356296 23.885963 0 0 0
1431 2 -5.432024 5.918796 23.888163 0 0 0
1432 2 -3.685624 5.073196 21.901763 0 0 0
1433 2 -1.640124 3.834196 22.032163 0 0 0
1434 2 -1.186024 4.692496 23.026563 0 0 0
1435 2 -1.978824 5.745396 23.454863 0 0 0
1436 2 -2.895724 4.020796 21.458663 0 0 0
1437 2 -3.291624 1.650696 21.471163 0 0 0
1438 2 -2.039424 1.451696 22.046463 0 0 0
1439 2 -1.219324 2.537896 22.320163 0 0 0
1440 2 -3.715924 2.935696 21.178763 0 0 0