LAMMPS (2 Aug 2023 - Update 3)
OMP_NUM_THREADS environment is not set. Defaulting to 1 thread. (src/comm.cpp:98)
  using 1 OpenMP thread(s) per MPI task
Reading data file ...
  orthogonal box = (-100 -100 -2.1416495) to (100 100 39.081159)
  4 by 3 by 1 MPI processor grid
  reading atoms ...
  1620 atoms
  read_data CPU = 0.051 seconds
Replication is creating a 1x1x3 = 3 times larger system...
  orthogonal box = (-100 -100 -2.1416495) to (100 100 121.52678)
  2 by 3 by 2 MPI processor grid
  4860 atoms
  replicate CPU = 0.001 seconds
System init for write_data ...
WARNING: Communication cutoff is 0.0. No ghost atoms will be generated. Atoms may get lost. (src/comm_brick.cpp:210)
Reading airebo potential file CH.airebo with DATE: 2011-10-25
Reading airebo potential file CH.airebo with DATE: 2011-10-25
Reading airebo potential file CH.airebo with DATE: 2011-10-25
Neighbor list info ...
  update: every = 1 steps, delay = 0 steps, check = yes
  max neighbors/atom: 2000, page size: 100000
  master list distance cutoff = 13.2
  ghost atom cutoff = 13.2
  binsize = 6.6, bins = 31 31 19
  6 neighbor lists, perpetual/occasional/extra = 6 0 0
  (1) pair airebo, perpetual, skip from (5)
      attributes: full, newton on, ghost
      pair build: skip/ghost
      stencil: none
      bin: none
  (2) pair airebo, perpetual, skip from (5)
      attributes: full, newton on, ghost
      pair build: skip/ghost
      stencil: none
      bin: none
  (3) pair airebo, perpetual, skip from (5)
      attributes: full, newton on, ghost
      pair build: skip/ghost
      stencil: none
      bin: none
  (4) pair lj/cut, perpetual, skip from (6)
      attributes: half, newton on, cut 13
      pair build: skip
      stencil: none
      bin: none
  (5) neighbor class addition, perpetual
      attributes: full, newton on, ghost
      pair build: full/bin/ghost
      stencil: full/ghost/bin/3d
      bin: standard
  (6) neighbor class addition, perpetual
      attributes: half, newton on, cut 13
      pair build: half/bin/atomonly/newton
      stencil: half/bin/3d
      bin: standard
Setting up sd style minimization ...
  Unit style    : metal
  Current step  : 0
Per MPI rank memory allocation (min/avg/max) = 9.733 | 11.31 | 14.66 Mbytes
   Step          Temp          E_pair         E_mol          TotEng         Press     
         0   0             -32549.236      0             -32549.236      3997.0868    
        24   0             -34912.421      0             -34912.421      81.021641    
Loop time of 4.03938 on 12 procs for 24 steps with 4860 atoms

77.4% CPU use with 12 MPI tasks x 1 OpenMP threads

Minimization stats:
  Stopping criterion = energy tolerance
  Energy initial, next-to-last, final = 
     -32549.2362893134   -34909.664093304  -34912.4212912062
  Force two-norm initial, final = 1446.7356 19.529787
  Force max component initial, final = 177.24911 2.7877205
  Final line search alpha, max atom move = 0.017949923 0.050039368
  Iterations, force evaluations = 24 43

MPI task timing breakdown:
Section |  min time  |  avg time  |  max time  |%varavg| %total
---------------------------------------------------------------
Pair    | 6.1284e-05 | 0.36917    | 1.4073     |  88.6 |  9.14
Neigh   | 0          | 0          | 0          |   0.0 |  0.00
Comm    | 2.1845e-05 | 0.27938    | 1.1403     |  79.5 |  6.92
Output  | 0          | 0          | 0          |   0.0 |  0.00
Modify  | 0          | 0          | 0          |   0.0 |  0.00
Other   |            | 3.391      |            |       | 83.94

Nlocal:            405 ave        1233 max           0 min
Histogram: 8 0 0 0 0 0 0 0 0 4
Nghost:            755 ave        2283 max           0 min
Histogram: 8 0 0 0 0 0 0 0 0 4
Neighs:              0 ave           0 max           0 min
Histogram: 12 0 0 0 0 0 0 0 0 0

Total # of neighbors = 0
Ave neighs/atom = 0
Neighbor list builds = 0
Dangerous builds = 0
Setting up Verlet run ...
  Unit style    : metal
  Current step  : 24
  Time step     : 0.001
Per MPI rank memory allocation (min/avg/max) = 10.36 | 11.94 | 15.28 Mbytes
   Step          Temp          E_pair         E_mol          TotEng         Press          Volume    
        24   300           -34912.421      0             -34723.999      121.70652      4946737.1    
Loop time of 0.0138331 on 12 procs for 0 steps with 4860 atoms

73.6% CPU use with 12 MPI tasks x 1 OpenMP threads

MPI task timing breakdown:
Section |  min time  |  avg time  |  max time  |%varavg| %total
---------------------------------------------------------------
Pair    | 0          | 0          | 0          |   0.0 |  0.00
Neigh   | 0          | 0          | 0          |   0.0 |  0.00
Comm    | 0          | 0          | 0          |   0.0 |  0.00
Output  | 0          | 0          | 0          |   0.0 |  0.00
Modify  | 0          | 0          | 0          |   0.0 |  0.00
Other   |            | 0.01383    |            |       |100.00

Nlocal:            405 ave        1239 max           0 min
Histogram: 8 0 0 0 0 0 0 0 0 4
Nghost:        754.667 ave        2289 max           0 min
Histogram: 8 0 0 0 0 0 0 0 0 4
Neighs:              0 ave           0 max           0 min
Histogram: 12 0 0 0 0 0 0 0 0 0

Total # of neighbors = 0
Ave neighs/atom = 0
Neighbor list builds = 0
Dangerous builds = 0
WARNING: Dump 2 includes no atom IDs and is not sorted by ID. This may complicate post-processing tasks or visualization (src/dump.cpp:221)
Setting up Verlet run ...
  Unit style    : metal
  Current step  : 0
  Time step     : 0.001
Per MPI rank memory allocation (min/avg/max) = 11.86 | 13.44 | 16.78 Mbytes
   Step         PotEng         KinEng         TotEng           Lx             Ly             Lz      
         0  -34912.421      188.42251     -34723.999      200            200            123.66843    
       100  -34835.477      126.95996     -34708.517      199.98559      199.99013      123.73026    
       200  -34832.51       144.25848     -34688.251      199.92109      199.93382      123.7921     
       300  -34831.789      165.92791     -34665.861      200.00818      200.03384      123.85393    
       400  -34817.365      173.57085     -34643.794      200.00545      200.05426      123.91576    
       500  -34801.997      172.81258     -34629.184      199.90905      199.98809      123.9776     
       600  -34809.994      195.88037     -34614.114      199.95501      200.06253      124.03943    
       700  -34810.345      204.15305     -34606.192      199.97852      200.11012      124.10127    
       800  -34808.793      197.97766     -34610.816      199.91822      200.06261      124.1631     
       900  -34800.412      182.51992     -34617.892      199.93171      200.09723      124.22493    
      1000  -34804.784      186.74358     -34618.04       199.9376       200.11051      124.28677    
      1100  -34805.45       188.26493     -34617.185      199.93716      200.11903      124.3486     
      1200  -34803.824      188.67635     -34615.147      199.90706      200.11136      124.41044    
      1300  -34799.353      189.79292     -34609.56       199.91422      200.13801      124.47227    
      1400  -34795.433      190.44823     -34604.985      199.93491      200.16888      124.53411    
      1500  -34797.777      187.82837     -34609.949      199.90067      200.14656      124.59594    
      1600  -34801.506      185.17117     -34616.335      199.90948      200.17294      124.65777    
      1700  -34806.255      188.67669     -34617.579      199.89814      200.17563      124.71961    
      1800  -34803.878      188.78414     -34615.094      199.89295      200.187        124.78144    
      1900  -34797.341      188.13864     -34609.203      199.88465      200.21287      124.84328    
      2000  -34795.216      190.31442     -34604.902      199.85585      200.20721      124.90511    
      2100  -34795.43       187.18844     -34608.242      199.86049      200.23004      124.96695    
      2200  -34799.946      186.20711     -34613.738      199.85613      200.24111      125.02878    
      2300  -34802.626      184.98278     -34617.643      199.85418      200.23765      125.09061    
      2400  -34802.957      185.24199     -34617.715      199.86184      200.23205      125.15245    
      2500  -34800.825      187.58561     -34613.24       199.88211      200.22358      125.21428    
      2600  -34797.167      190.88279     -34606.284      199.89394      200.21399      125.27612    
      2700  -34798.605      194.21943     -34604.385      199.8928       200.20785      125.33795    
      2800  -34797.19       188.48394     -34608.706      199.88906      200.21765      125.39978    
      2900  -34797.99       187.60339     -34610.387      199.8838       200.22479      125.46162    
      3000  -34795.743      187.71939     -34608.023      199.87973      200.23473      125.52345    
      3100  -34790.106      186.84424     -34603.262      199.86701      200.24295      125.58529    
      3200  -34792.989      193.55279     -34599.436      199.85606      200.25794      125.64712    
      3300  -34789.333      189.21409     -34600.119      199.84557      200.273        125.70896    
      3400  -34788.377      186.38133     -34601.996      199.82979      200.27853      125.77079    
      3500  -34785.585      183.67685     -34601.908      199.82979      200.29154      125.83262    
      3600  -34785.854      188.6021      -34597.252      199.82274      200.29829      125.89446    
      3700  -34782.543      188.27802     -34594.265      199.81821      200.29657      125.95629    
      3800  -34786.789      189.47233     -34597.317      199.82289      200.29651      126.01813    
      3900  -34787.032      187.32376     -34599.708      199.82694      200.28622      126.07996    
      4000  -34783.329      184.22184     -34599.107      199.83082      200.28253      126.1418     
      4100  -34782.691      187.20933     -34595.481      199.83746      200.27301      126.20363    
      4200  -34783.632      191.93923     -34591.693      199.8429       200.268        126.26546    
      4300  -34782.964      188.29395     -34594.67       199.85076      200.26918      126.3273     
      4400  -34784.354      188.50566     -34595.848      199.83672      200.26807      126.38913    
      4500  -34783.417      189.7501      -34593.667      199.81587      200.27293      126.45097    
      4600  -34779.703      188.2091      -34591.494      199.79816      200.29461      126.5128     
      4700  -34782.81       187.31388     -34595.496      199.77717      200.30723      126.57464    
      4800  -34782.823      186.93798     -34595.885      199.76774      200.32227      126.63647    
      4900  -34781.37       187.20946     -34594.161      199.76143      200.33501      126.6983     
      5000  -34779.699      187.71452     -34591.984      199.75034      200.34173      126.76014    
      5100  -34776.552      185.79432     -34590.758      199.73694      200.34645      126.82197    
      5200  -34777.423      189.46733     -34587.955      199.72391      200.35254      126.88381    
      5300  -34775.435      189.54456     -34585.89       199.70831      200.35281      126.94564    
      5400  -34779.218      189.92934     -34589.289      199.69435      200.36075      127.00747    
      5500  -34778.808      188.83241     -34589.976      199.68756      200.36668      127.06931    
      5600  -34771.454      183.92551     -34587.529      199.68355      200.36621      127.13114    
      5700  -34766.567      186.29222     -34580.275      199.67664      200.36866      127.19298    
      5800  -34767.39       191.14375     -34576.246      199.66846      200.36953      127.25481    
      5900  -34764.973      188.20417     -34576.769      199.65937      200.37579      127.31665    
      6000  -34763.103      186.28443     -34576.819      199.64656      200.38704      127.37848    
      6100  -34759.171      185.93309     -34573.238      199.63033      200.39459      127.44031    
      6200  -34759.956      189.155       -34570.801      199.61566      200.39827      127.50215    
      6300  -34757.293      189.06029     -34568.233      199.6008       200.40835      127.56398    
      6400  -34751.234      186.16365     -34565.07       199.5814       200.41966      127.62582    
      6500  -34748.58       188.21152     -34560.368      199.56179      200.42559      127.68765    
      6600  -34745.916      190.79648     -34555.12       199.55171      200.42769      127.74949    
      6700  -34741.728      189.38926     -34552.338      199.54692      200.42195      127.81132    
      6800  -34741.851      186.57249     -34555.278      199.55149      200.42292      127.87315    
      6900  -34738.076      183.57541     -34554.5        199.54851      200.41309      127.93499    
      7000  -34739.435      189.46365     -34549.971      199.54159      200.40224      127.99682    
      7100  -34731.154      186.88567     -34544.268      199.53546      200.40527      128.05866    
      7200  -34731.244      193.52662     -34537.717      199.51973      200.41466      128.12049    
      7300  -34727.921      190.69823     -34537.222      199.5011       200.41835      128.18232    
      7400  -34728.153      188.07327     -34540.08       199.48555      200.42635      128.24416    
      7500  -34724.93       187.29849     -34537.632      199.47581      200.42942      128.30599    
      7600  -34720.596      188.0623      -34532.534      199.47255      200.41969      128.36783    
      7700  -34717.972      190.99818     -34526.974      199.48068      200.41417      128.42966    
      7800  -34717.224      189.7884      -34527.436      199.48238      200.39205      128.4915     
      7900  -34719.213      189.56587     -34529.647      199.47857      200.36718      128.55333    
      8000  -34714.965      187.28679     -34527.678      199.47963      200.3548       128.61516    
      8100  -34709.042      185.20432     -34523.837      199.47949      200.34328      128.677      
      8200  -34706.702      191.21406     -34515.488      199.47601      200.32926      128.73883    
      8300  -34703.998      191.62627     -34512.371      199.47637      200.32227      128.80067    
      8400  -34701.417      189.32598     -34512.091      199.4687       200.31569      128.8625     
      8500  -34702.47       191.10651     -34511.364      199.46042      200.3151       128.92434    
      8600  -34700.074      188.96859     -34511.106      199.45091      200.31736      128.98617    
      8700  -34697.54       187.88554     -34509.654      199.43008      200.31309      129.048      
      8800  -34694.443      189.04959     -34505.394      199.41679      200.31411      129.10984    
      8900  -34691.506      190.61593     -34500.891      199.40214      200.31155      129.17167    
      9000  -34685.258      189.82243     -34495.436      199.38053      200.30374      129.23351    
      9100  -34681.384      192.00092     -34489.383      199.36518      200.29619      129.29534    
      9200  -34682.056      192.09091     -34489.965      199.35364      200.29347      129.35717    
      9300  -34681.402      190.38485     -34491.017      199.34372      200.29066      129.41901    
      9400  -34675.505      186.14255     -34489.362      199.33251      200.28018      129.48084    
      9500  -34672.326      188.62038     -34483.705      199.32358      200.2657       129.54268    
      9600  -34664.945      188.56813     -34476.377      199.31347      200.25553      129.60451    
      9700  -34661.818      192.38303     -34469.435      199.30435      200.25472      129.66635    
      9800  -34654.091      187.62065     -34466.471      199.29407      200.25132      129.72818    
      9900  -34655.403      186.90031     -34468.502      199.28726      200.25144      129.79001    
     10000  -34652.881      189.36504     -34463.516      199.27031      200.2435       129.85185    
     10100  -34647.559      190.54446     -34457.015      199.24759      200.23189      129.91368    
     10200  -34642.777      187.88482     -34454.892      199.23629      200.23002      129.97552    
     10300  -34644.456      187.62945     -34456.827      199.22237      200.22952      130.03735    
     10400  -34637.84       183.42976     -34454.41       199.2024       200.22426      130.09919    
     10500  -34635.775      186.92565     -34448.85       199.18503      200.22324      130.16102    
     10600  -34632.287      189.61826     -34442.668      199.16987      200.2213       130.22285    
     10700  -34628.954      190.4345      -34438.52       199.15423      200.21496      130.28469    
     10800  -34623.434      187.80036     -34435.634      199.13418      200.21189      130.34652    
     10900  -34619.684      184.25909     -34435.425      199.10883      200.20448      130.40836    
     11000  -34622.705      188.76119     -34433.944      199.08877      200.20077      130.47019    
     11100  -34616.187      189.00688     -34427.18       199.07942      200.19808      130.53202    
     11200  -34611.157      189.94345     -34421.213      199.06738      200.18957      130.59386    
     11300  -34608.953      187.01908     -34421.934      199.04847      200.17185      130.65569    
     11400  -34611.993      191.14518     -34420.848      199.03179      200.1653       130.71753    
     11500  -34603.904      185.82048     -34418.084      199.01004      200.16024      130.77936    
     11600  -34602.708      187.46206     -34415.246      198.98035      200.15023      130.8412     
     11700  -34603.506      188.12166     -34415.384      198.95993      200.145        130.90303    
     11800  -34601.677      186.96836     -34414.709      198.94233      200.13685      130.96486    
     11900  -34595.589      186.21233     -34409.376      198.92511      200.12298      131.0267     
     12000  -34588.685      187.1763      -34401.509      198.90333      200.10769      131.08853    
     12100  -34582.556      188.06943     -34394.487      198.88308      200.09384      131.15037    
     12200  -34577.557      190.38583     -34387.171      198.86444      200.08976      131.2122     
     12300  -34570.128      188.00936     -34382.119      198.8451       200.0866       131.27404    
     12400  -34564.947      186.11054     -34378.836      198.82607      200.07873      131.33587    
     12500  -34562.927      186.52099     -34376.406      198.81149      200.06357      131.3977     
     12600  -34561.444      186.92549     -34374.519      198.79323      200.03648      131.45954    
     12700  -34557.373      188.50038     -34368.873      198.78279      200.00917      131.52137    
     12800  -34553.409      192.75367     -34360.655      198.77454      199.981        131.58321    
     12900  -34548.037      189.10566     -34358.931      198.76572      199.95907      131.64504    
     13000  -34546.745      188.29278     -34358.452      198.74594      199.94097      131.70687    
     13100  -34543.795      189.2015      -34354.594      198.7176       199.92214      131.76871    
     13200  -34538.956      187.44526     -34351.511      198.69164      199.90659      131.83054    
     13300  -34532.644      184.77173     -34347.873      198.66998      199.89308      131.89238    
     13400  -34527.038      187.07393     -34339.964      198.64386      199.87314      131.95421    
     13500  -34522.831      191.07313     -34331.758      198.61957      199.84696      132.01605    
     13600  -34518.514      189.63599     -34328.878      198.59711      199.82064      132.07788    
     13700  -34514.071      187.12686     -34326.944      198.57556      199.80005      132.13971    
     13800  -34507.445      187.49597     -34319.949      198.55288      199.78332      132.20155    
     13900  -34500.303      190.06566     -34310.238      198.53015      199.76397      132.26338    
     14000  -34494.704      189.0517      -34305.652      198.50665      199.74094      132.32522    
     14100  -34495.636      189.95898     -34305.677      198.48705      199.72091      132.38705    
     14200  -34494.985      189.74282     -34305.242      198.46094      199.69576      132.44889    
     14300  -34488.12       185.36358     -34302.757      198.43224      199.67056      132.51072    
     14400  -34483.186      185.67918     -34297.507      198.40152      199.65363      132.57255    
     14500  -34478.996      190.66717     -34288.329      198.35977      199.62865      132.63439    
     14600  -34473.889      191.14164     -34282.747      198.31855      199.60588      132.69622    
     14700  -34473.005      189.45377     -34283.552      198.29168      199.59773      132.75806    
     14800  -34465.534      183.67308     -34281.861      198.25795      199.57606      132.81989    
     14900  -34463.127      188.28361     -34274.844      198.22555      199.54571      132.88172    
     15000  -34454.096      187.3813      -34266.715      198.19666      199.52157      132.94356    
     15100  -34452.196      192.38549     -34259.811      198.15889      199.49292      133.00539    
     15200  -34445.44       187.48777     -34257.952      198.12762      199.47599      133.06723    
     15300  -34442.777      188.02125     -34254.756      198.08781      199.45505      133.12906    
     15400  -34437.555      191.29699     -34246.258      198.03688      199.42962      133.1909     
     15500  -34431.994      196.00572     -34235.988      197.99242      199.40882      133.25273    
     15600  -34428.604      191.98147     -34236.623      197.94389      199.38472      133.31456    
     15700  -34428.679      191.48734     -34237.192      197.89834      199.35879      133.3764     
     15800  -34420.964      184.80423     -34236.16       197.85605      199.33164      133.43823    
     15900  -34418.603      186.9109      -34231.692      197.80574      199.30106      133.50007    
     16000  -34411.343      186.26488     -34225.078      197.75584      199.28088      133.5619     
     16100  -34408.359      191.82687     -34216.532      197.69883      199.25728      133.62374    
     16200  -34399.036      187.98876     -34211.047      197.63835      199.22922      133.68557    
     16300  -34400.387      187.72279     -34212.664      197.58875      199.20415      133.7474     
     16400  -34398.933      188.98996     -34209.943      197.53746      199.17249      133.80924    
     16500  -34393.479      187.11756     -34206.362      197.48222      199.13546      133.87107    
     16600  -34387.403      188.85379     -34198.549      197.43488      199.10863      133.93291    
     16700  -34379.083      190.25965     -34188.824      197.37617      199.07825      133.99474    
     16800  -34371.871      187.98574     -34183.886      197.30277      199.0412       134.05657    
     16900  -34367.615      185.75231     -34181.862      197.23895      199.01046      134.11841    
     17000  -34368.25       189.32847     -34178.922      197.17159      198.97219      134.18024    
     17100  -34362.467      187.70805     -34174.759      197.10991      198.93199      134.24208    
     17200  -34360.327      188.81508     -34171.512      197.05944      198.90263      134.30391    
     17300  -34354.957      181.83791     -34173.119      196.99656      198.86521      134.36575    
     17400  -34349.71       181.61682     -34168.093      196.92628      198.82241      134.42758    
     17500  -34345.013      185.80648     -34159.207      196.85596      198.78198      134.48941    
     17600  -34341.252      190.27943     -34150.973      196.77796      198.73517      134.55125    
     17700  -34330.419      185.26414     -34145.155      196.70886      198.69796      134.61308    
     17800  -34329.443      189.27024     -34140.173      196.6408       198.66211      134.67492    
     17900  -34325.432      188.67316     -34136.759      196.57306      198.62561      134.73675    
     18000  -34321.887      186.1433      -34135.744      196.51435      198.59494      134.79859    
     18100  -34315.121      184.44955     -34130.671      196.44822      198.55647      134.86042    
     18200  -34310.036      189.69214     -34120.344      196.37325      198.51359      134.92225    
     18300  -34301.574      188.52746     -34113.046      196.29389      198.47611      134.98409    
     18400  -34295.962      187.90778     -34108.054      196.20945      198.43576      135.04592    
     18500  -34293.114      189.48592     -34103.628      196.12713      198.39572      135.10776    
     18600  -34287.345      185.45639     -34101.888      196.04886      198.35012      135.16959    
     18700  -34280.734      182.24296     -34098.491      195.96894      198.2956       135.23142    
     18800  -34275.545      188.46307     -34087.082      195.89514      198.24793      135.29326    
     18900  -34263.797      185.2969      -34078.5        195.82016      198.20378      135.35509    
     19000  -34263.052      191.4025      -34071.65       195.73485      198.15755      135.41693    
     19100  -34256.85       190.66716     -34066.183      195.65238      198.11605      135.47876    
     19200  -34250.297      187.46171     -34062.835      195.57039      198.06928      135.5406     
     19300  -34244.927      183.57702     -34061.35       195.48296      198.01323      135.60243    
     19400  -34241.738      186.87272     -34054.865      195.40419      197.96139      135.66426    
     19500  -34234.066      190.1718      -34043.894      195.32614      197.90698      135.7261     
     19600  -34230.095      193.32303     -34036.772      195.24786      197.8505       135.78793    
     19700  -34223.207      189.62288     -34033.584      195.17699      197.80437      135.84977    
     19800  -34219.202      188.18883     -34031.013      195.09704      197.75795      135.9116     
     19900  -34212.146      185.69241     -34026.453      195.01125      197.7106       135.97344    
     20000  -34208.23       190.26212     -34017.968      194.93155      197.67035      136.03527    
     20100  -34198.553      192.15804     -34006.395      194.84744      197.62345      136.0971     
     20200  -34191.125      190.3534      -34000.772      194.76379      197.57498      136.15894    
     20300  -34187.315      189.28242     -33998.033      194.68722      197.53014      136.22077    
     20400  -34179.711      186.8277      -33992.884      194.60632      197.47901      136.28261    
     20500  -34176.656      190.0802      -33986.575      194.52869      197.4294       136.34444    
     20600  -34168.975      190.04057     -33978.935      194.45005      197.38078      136.40627    
     20700  -34159.557      189.10045     -33970.457      194.36971      197.33106      136.46811    
     20800  -34157.959      193.26342     -33964.695      194.29569      197.2897       136.52994    
     20900  -34149.136      185.13904     -33963.997      194.21941      197.24192      136.59178    
     21000  -34147.556      187.33358     -33960.222      194.14782      197.19445      136.65361    
     21100  -34140.388      187.98347     -33952.405      194.07924      197.15105      136.71545    
     21200  -34131.681      189.6219      -33942.06       194.00106      197.10235      136.77728    
     21300  -34126.213      190.43559     -33935.777      193.92539      197.05641      136.83911    
     21400  -34120.868      188.34405     -33932.524      193.85451      197.01467      136.90095    
     21500  -34118.504      189.07283     -33929.431      193.77721      196.96731      136.96278    
     21600  -34113.024      188.76952     -33924.255      193.70747      196.93115      137.02462    
     21700  -34102.976      187.31671     -33915.66       193.63995      196.89404      137.08645    
     21800  -34095.06       190.26184     -33904.798      193.57274      196.84935      137.14829    
     21900  -34086.003      188.86719     -33897.136      193.51457      196.80711      137.21012    
     22000  -34084.857      192.07146     -33892.785      193.45114      196.75935      137.27195    
     22100  -34076.818      187.29085     -33889.527      193.38735      196.71609      137.33379    
     22200  -34072.833      189.12461     -33883.709      193.32815      196.68355      137.39562    
     22300  -34066.164      190.63648     -33875.527      193.25483      196.64126      137.45746    
     22400  -34052.215      187.39871     -33864.816      193.18934      196.60847      137.51929    
     22500  -34049.717      192.59069     -33857.126      193.13471      196.58387      137.58113    
     22600  -34045.09       189.23228     -33855.858      193.07197      196.54156      137.64296    
     22700  -34039.623      187.10131     -33852.522      193.02279      196.50679      137.70479    
     22800  -34032.036      185.88279     -33846.153      192.97191      196.47172      137.76663    
     22900  -34025.412      187.79155     -33837.62       192.91306      196.43002      137.82846    
     23000  -34019.078      191.52098     -33827.557      192.86688      196.40422      137.8903     
     23100  -34010.394      190.83827     -33819.556      192.81305      196.37214      137.95213    
     23200  -34009.211      190.80043     -33818.411      192.75484      196.33709      138.01396    
     23300  -33999.692      184.44535     -33815.247      192.70817      196.31318      138.0758     
     23400  -33997.875      190.2559      -33807.619      192.65838      196.27983      138.13763    
     23500  -33984.416      188.48489     -33795.931      192.6134       196.24956      138.19947    
     23600  -33975.716      187.90315     -33787.813      192.57393      196.22201      138.2613     
     23700  -33968.814      187.33498     -33781.479      192.52725      196.18501      138.32314    
     23800  -33962.386      184.82636     -33777.56       192.48884      196.15845      138.38497    
     23900  -33962.177      186.25933     -33775.918      192.44783      196.13231      138.4468     
     24000  -33955.289      186.3459      -33768.943      192.40149      196.10287      138.50864    
     24100  -33945.963      189.12205     -33756.841      192.36473      196.08378      138.57047    
     24200  -33940.15       190.4133      -33749.737      192.32312      196.05792      138.63231    
     24300  -33930.776      187.39067     -33743.385      192.28182      196.03163      138.69414    
     24400  -33925.938      189.35277     -33736.586      192.24938      196.01175      138.75598    
     24500  -33918.262      188.53071     -33729.731      192.20875      195.98231      138.81781    
     24600  -33911.62       187.71089     -33723.909      192.16786      195.95528      138.87964    
     24700  -33905.843      186.40692     -33719.437      192.13162      195.9343       138.94148    
     24800  -33898.817      184.23538     -33714.582      192.08965      195.90474      139.00331    
     24900  -33892.22       188.02783     -33704.192      192.05796      195.8844       139.06515    
     25000  -33884.757      191.74043     -33693.017      192.0264       195.86546      139.12698    
     25100  -33875.978      189.39859     -33686.58       191.99106      195.84149      139.18881    
     25200  -33869.988      188.24703     -33681.741      191.96463      195.82477      139.25065    
     25300  -33863.225      185.04789     -33678.177      191.93636      195.80411      139.31248    
     25400  -33859.565      186.81367     -33672.751      191.90526      195.77966      139.37432    
     25500  -33846.918      186.49636     -33660.422      191.87946      195.76163      139.43615    
     25600  -33839.915      190.15519     -33649.76       191.84727      195.7388       139.49799    
     25700  -33831.846      189.27378     -33642.573      191.81418      195.71544      139.55982    
     25800  -33826.213      187.35961     -33638.853      191.78551      195.69611      139.62165    
     25900  -33820.565      185.78698     -33634.778      191.75005      195.66841      139.68349    
     26000  -33812.857      184.77115     -33628.086      191.72129      195.64735      139.74532    
     26100  -33807.666      191.62935     -33616.037      191.69553      195.62591      139.80716    
     26200  -33796.718      190.33221     -33606.386      191.66799      195.60141      139.86899    
     26300  -33791.356      189.38637     -33601.969      191.64607      195.58712      139.93083    
     26400  -33785.123      186.66755     -33598.456      191.61945      195.5723       139.99266    
     26500  -33780.652      189.83604     -33590.816      191.59473      195.56075      140.05449    
     26600  -33771.588      189.23381     -33582.354      191.57559      195.5514       140.11633    
     26700  -33761.864      188.169       -33573.695      191.55277      195.52995      140.17816    
     26800  -33752.103      191.86856     -33560.234      191.5351       195.50988      140.24       
     26900  -33744.918      193.40711     -33551.511      191.51424      195.48818      140.30183    
     27000  -33736.909      188.67042     -33548.238      191.48732      195.46362      140.36366    
     27100  -33731.574      187.70324     -33543.87       191.46281      195.44681      140.4255     
     27200  -33726.999      189.9479      -33537.051      191.43436      195.42823      140.48733    
     27300  -33721.043      191.7551      -33529.288      191.40473      195.40803      140.54917    
     27400  -33709.464      187.4745      -33521.989      191.38199      195.39755      140.611      
     27500  -33702.511      188.27864     -33514.233      191.3514       195.37805      140.67284    
     27600  -33698.397      189.6364      -33508.76       191.32597      195.36272      140.73467    
     27700  -33690.258      186.72164     -33503.537      191.30392      195.34914      140.7965     
     27800  -33683.968      186.20182     -33497.766      191.27911      195.32931      140.85834    
     27900  -33674.117      185.30359     -33488.813      191.26064      195.31454      140.92017    
     28000  -33666.46       190.62218     -33475.838      191.23887      195.29586      140.98201    
     28100  -33656.212      190.06596     -33466.146      191.2166       195.27853      141.04384    
     28200  -33646.355      187.40015     -33458.955      191.197        195.2664       141.10568    
     28300  -33644.002      188.57878     -33455.423      191.17281      195.24867      141.16751    
     28400  -33634.011      181.91743     -33452.093      191.15211      195.2341       141.22934    
     28500  -33628.406      185.513       -33442.893      191.13482      195.2218       141.29118    
     28600  -33618.185      186.40199     -33431.783      191.11123      195.20215      141.35301    
     28700  -33613.666      191.46714     -33422.199      191.09112      195.18586      141.41485    
     28800  -33605.898      191.4344      -33414.464      191.06781      195.16752      141.47668    
     28900  -33597.566      190.27358     -33407.293      191.03878      195.14629      141.53851    
     29000  -33593.397      188.15662     -33405.241      191.01506      195.1321       141.60035    
     29100  -33587.271      187.17259     -33400.098      190.98762      195.11298      141.66218    
     29200  -33576.835      185.66546     -33391.17       190.96094      195.0953       141.72402    
     29300  -33565.719      187.24156     -33378.478      190.93774      195.08092      141.78585    
     29400  -33556.792      188.0493      -33368.743      190.91147      195.05951      141.84769    
     29500  -33551.504      189.88588     -33361.618      190.89481      195.04499      141.90952    
     29600  -33543.859      187.64839     -33356.211      190.88032      195.02922      141.97135    
     29700  -33536.533      186.01021     -33350.523      190.86078      195.00431      142.03319    
     29800  -33529.365      185.82949     -33343.535      190.84519      194.98778      142.09502    
     29900  -33520.965      188.584       -33332.381      190.82406      194.97086      142.15686    
     30000  -33510.924      190.39537     -33320.529      190.7973       194.95255      142.21869    
     30100  -33502.341      189.736       -33312.605      190.77804      194.94604      142.28053    
     30200  -33498.036      189.53582     -33308.5        190.75248      194.92978      142.34236    
     30300  -33489.812      185.22101     -33304.591      190.72631      194.90969      142.40419    
     30400  -33484.326      187.2933      -33297.033      190.70787      194.89561      142.46603    
     30500  -33476.117      188.38552     -33287.732      190.68301      194.87235      142.52786    
     30600  -33465.479      187.67992     -33277.799      190.66273      194.85204      142.5897     
     30700  -33455.19       187.514       -33267.676      190.6433       194.83356      142.65153    
     30800  -33450.323      195.02269     -33255.3        190.61594      194.80918      142.71336    
     30900  -33434.692      189.94026     -33244.752      190.59575      194.79478      142.7752     
     31000  -33435.639      192.28057     -33243.359      190.57278      194.77857      142.83703    
     31100  -33427.614      188.16804     -33239.446      190.54851      194.76016      142.89887    
     31200  -33419.443      187.50907     -33231.934      190.53063      194.74501      142.9607     
     31300  -33408.89       188.2207      -33220.669      190.50926      194.72004      143.02254    
     31400  -33399.662      190.1003      -33209.562      190.4909       194.69854      143.08437    
     31500  -33394.175      191.34629     -33202.828      190.47285      194.68097      143.1462     
     31600  -33382.818      183.45826     -33199.359      190.44903      194.65964      143.20804    
     31700  -33381.629      188.25926     -33193.37       190.42884      194.64511      143.26987    
     31800  -33371.875      187.62819     -33184.247      190.40724      194.63174      143.33171    
     31900  -33360.055      186.43333     -33173.621      190.37996      194.61305      143.39354    
     32000  -33352.448      190.05703     -33162.391      190.35642      194.59908      143.45538    
     32100  -33342.68       188.77575     -33153.904      190.33072      194.57871      143.51721    
     32200  -33338.645      188.16506     -33150.48       190.30266      194.55173      143.57904    
     32300  -33333.023      186.16339     -33146.859      190.27906      194.52903      143.64088    
     32400  -33321.128      185.41821     -33135.71       190.25489      194.50343      143.70271    
     32500  -33313.581      189.61782     -33123.963      190.23453      194.48242      143.76455    
     32600  -33303.313      188.89451     -33114.418      190.2155       194.46578      143.82638    
     32700  -33296.058      188.45096     -33107.607      190.19238      194.44558      143.88821    
     32800  -33288.455      183.37578     -33105.079      190.17338      194.42897      143.95005    
     32900  -33280.817      183.21681     -33097.6        190.15292      194.40986      144.01188    
     33000  -33270.801      184.71309     -33086.087      190.12975      194.38602      144.07372    
     33100  -33265.654      189.84547     -33075.809      190.11103      194.36827      144.13555    
     33200  -33253.811      187.90649     -33065.905      190.08753      194.34571      144.19739    
     33300  -33246.898      190.71157     -33056.186      190.05792      194.31716      144.25922    
     33400  -33236.648      191.22734     -33045.421      190.03271      194.29521      144.32105    
     33500  -33227.737      191.39495     -33036.342      190.00636      194.27091      144.38289    
     33600  -33223.003      189.52298     -33033.48       189.97638      194.24228      144.44472    
     33700  -33219.123      191.05882     -33028.065      189.95279      194.22098      144.50656    
     33800  -33207.199      187.77553     -33019.423      189.92792      194.19971      144.56839    
     33900  -33200.335      190.92167     -33009.414      189.90652      194.18178      144.63023    
     34000  -33186.845      190.16553     -32996.679      189.88632      194.16186      144.69206    
     34100  -33175.084      188.96275     -32986.121      189.86472      194.1392       144.75389    
     34200  -33169.032      187.60387     -32981.428      189.84449      194.11986      144.81573    
     34300  -33163.896      186.06789     -32977.828      189.81853      194.09622      144.87756    
     34400  -33156.635      187.39174     -32969.244      189.79034      194.07179      144.9394     
     34500  -33144.982      186.51065     -32958.472      189.76502      194.05156      145.00123    
     34600  -33134.791      188.14898     -32946.642      189.73648      194.02679      145.06306    
     34700  -33127.296      191.03847     -32936.257      189.71001      194.00107      145.1249     
     34800  -33121.96       190.53991     -32931.42       189.68381      193.97604      145.18673    
     34900  -33115.068      186.17207     -32928.895      189.65397      193.94852      145.24857    
     35000  -33105.845      185.82293     -32920.022      189.62904      193.92649      145.3104     
     35100  -33099.501      191.09159     -32908.409      189.6034       193.90122      145.37224    
     35200  -33085.76       188.48448     -32897.275      189.57721      193.87481      145.43407    
     35300  -33076.733      188.3035      -32888.43       189.55437      193.85646      145.4959     
     35400  -33071.533      188.2522      -32883.281      189.52774      193.83604      145.55774    
     35500  -33065.561      186.01773     -32879.543      189.50214      193.81621      145.61957    
     35600  -33057.852      188.27558     -32869.577      189.47693      193.79488      145.68141    
     35700  -33044.829      188.04875     -32856.78       189.44797      193.76613      145.74324    
     35800  -33035.569      188.80029     -32846.769      189.42281      193.73984      145.80508    
     35900  -33026.472      187.90591     -32838.566      189.39881      193.71532      145.86691    
     36000  -33017.725      185.93054     -32831.795      189.37019      193.68852      145.92874    
     36100  -33012.934      184.5482      -32828.386      189.34245      193.66576      145.99058    
     36200  -33006.69       185.12043     -32821.57       189.31137      193.64215      146.05241    
     36300  -32996.239      187.78802     -32808.451      189.27646      193.61464      146.11425    
     36400  -32987.85       190.50942     -32797.34       189.24646      193.5895       146.17608    
     36500  -32976.991      188.38826     -32788.603      189.21804      193.56305      146.23791    
     36600  -32968.949      188.82605     -32780.123      189.19007      193.53442      146.29975    
     36700  -32961.877      189.11659     -32772.76       189.16631      193.50814      146.36158    
     36800  -32954.215      187.73315     -32766.482      189.14249      193.48013      146.42342    
     36900  -32947.799      189.07608     -32758.723      189.11882      193.45435      146.48525    
     37000  -32934.109      188.44576     -32745.663      189.09439      193.43083      146.54709    
     37100  -32922.609      188.84953     -32733.76       189.06525      193.40479      146.60892    
     37200  -32915.897      190.34612     -32725.551      189.035        193.38093      146.67075    
     37300  -32907.427      187.9671      -32719.459      189.00333      193.35669      146.73259    
     37400  -32901.122      184.91903     -32716.203      188.96925      193.32493      146.79442    
     37500  -32896.632      187.4687      -32709.163      188.9388       193.29385      146.85626    
     37600  -32884.172      186.15374     -32698.018      188.90812      193.2635       146.91809    
     37700  -32875.35       188.44162     -32686.909      188.87298      193.2284       146.97993    
     37800  -32865.581      189.7028      -32675.878      188.84073      193.19925      147.04176    
     37900  -32858.308      191.79945     -32666.509      188.80954      193.17342      147.10359    
     38000  -32846.454      185.98507     -32660.469      188.77657      193.14569      147.16543    
     38100  -32842.574      187.06943     -32655.504      188.7497       193.12295      147.22726    
     38200  -32830.78       185.2081      -32645.572      188.72353      193.09796      147.2891     
     38300  -32820.542      189.40707     -32631.135      188.6977       193.07234      147.35093    
     38400  -32810.097      189.08288     -32621.014      188.67297      193.04418      147.41276    
     38500  -32804.669      191.59614     -32613.073      188.64537      193.01032      147.4746     
     38600  -32795.163      188.05126     -32607.112      188.61682      192.97695      147.53643    
     38700  -32787.823      184.97022     -32602.852      188.58803      192.94815      147.59827    
     38800  -32780.502      187.15924     -32593.342      188.55196      192.91519      147.6601     
     38900  -32767.583      189.49276     -32578.09       188.51773      192.88859      147.72194    
     39000  -32761.566      192.46374     -32569.103      188.48169      192.86279      147.78377    
     39100  -32754.232      190.64528     -32563.587      188.4441       192.83274      147.8456     
     39200  -32745.611      187.97227     -32557.638      188.41317      192.80446      147.90744    
     39300  -32732.771      184.7608      -32548.01       188.38211      192.77036      147.96927    
     39400  -32721.436      188.77852     -32532.657      188.35088      192.73356      148.03111    
     39500  -32712.086      188.00428     -32524.082      188.32465      192.70168      148.09294    
     39600  -32704.851      186.52143     -32518.329      188.29596      192.66726      148.15478    
     39700  -32698.011      185.95199     -32512.059      188.26605      192.63621      148.21661    
     39800  -32688.998      187.13239     -32501.866      188.23583      192.60946      148.27844    
     39900  -32676.595      190.15768     -32486.437      188.20067      192.58016      148.34028    
     40000  -32671.022      193.00259     -32478.02       188.16746      192.55542      148.40211    
     40100  -32661.741      188.54579     -32473.195      188.13592      192.53293      148.46395    
     40200  -32653.403      186.30131     -32467.102      188.10218      192.50248      148.52578    
     40300  -32647.792      189.61824     -32458.174      188.07099      192.4699       148.58762    
     40400  -32633.539      187.37262     -32446.167      188.03943      192.43626      148.64945    
     40500  -32623.164      191.09491     -32432.069      188.00251      192.39793      148.71128    
     40600  -32617.485      192.23857     -32425.246      187.96712      192.36374      148.77312    
     40700  -32606.8        186.35996     -32420.44       187.93286      192.33188      148.83495    
     40800  -32600.92       188.13713     -32412.783      187.89575      192.29587      148.89679    
     40900  -32592.173      188.96025     -32403.213      187.86311      192.26646      148.95862    
     41000  -32578.259      188.21761     -32390.042      187.82975      192.23759      149.02045    
     41100  -32568.953      191.69494     -32377.258      187.79769      192.20848      149.08229    
     41200  -32562.549      191.54771     -32371.002      187.76982      192.18317      149.14412    
     41300  -32553.683      188.4498      -32365.233      187.74028      192.15305      149.20596    
     41400  -32546.207      188.54883     -32357.658      187.71091      192.12189      149.26779    
     41500  -32536.75       187.20978     -32349.54       187.6794       192.09058      149.32963    
     41600  -32526.735      186.32759     -32340.408      187.64262      192.05875      149.39146    
     41700  -32518.03       191.7319      -32326.298      187.60418      192.02947      149.45329    
     41800  -32507.649      192.15261     -32315.497      187.56372      191.99637      149.51513    
     41900  -32496.893      186.41815     -32310.475      187.52169      191.95765      149.57696    
     42000  -32493.045      188.10229     -32304.943      187.48553      191.92182      149.6388     
     42100  -32481.696      185.75893     -32295.937      187.44948      191.88491      149.70063    
     42200  -32475.902      190.35029     -32285.552      187.41654      191.85171      149.76247    
     42300  -32461.496      188.52228     -32272.974      187.38851      191.82433      149.8243     
     42400  -32455.33       195.58125     -32259.749      187.35814      191.7939       149.88613    
     42500  -32446.419      192.26955     -32254.149      187.32977      191.76669      149.94797    
     42600  -32435.556      186.38491     -32249.171      187.29925      191.74081      150.0098     
     42700  -32431.936      190.59322     -32241.343      187.26216      191.70922      150.07164    
     42800  -32418.652      185.61376     -32233.039      187.2283       191.68035      150.13347    
     42900  -32411.218      188.09672     -32223.122      187.19168      191.64654      150.1953     
     43000  -32399.099      189.28431     -32209.814      187.15084      191.60556      150.25714    
     43100  -32391.392      191.69778     -32199.694      187.11598      191.56966      150.31897    
     43200  -32382.304      186.55898     -32195.745      187.07752      191.53143      150.38081    
     43300  -32375.219      186.17254     -32189.046      187.03744      191.49393      150.44264    
     43400  -32366.333      187.69832     -32178.635      187.00546      191.46643      150.50448    
     43500  -32357.198      190.0528      -32167.146      186.96871      191.43325      150.56631    
     43600  -32345.3        188.93372     -32156.366      186.93488      191.40456      150.62814    
     43700  -32337.563      189.2036      -32148.36       186.90598      191.38126      150.68998    
     43800  -32329.937      185.43533     -32144.502      186.87286      191.34995      150.75181    
     43900  -32325.674      188.84775     -32136.826      186.8436       191.32161      150.81365    
     44000  -32313.458      188.93215     -32124.526      186.81325      191.29253      150.87548    
     44100  -32300.619      189.06675     -32111.553      186.77597      191.2548       150.93732    
     44200  -32293.52       191.08174     -32102.438      186.74212      191.22088      150.99915    
     44300  -32282.401      187.85361     -32094.548      186.70514      191.18659      151.06098    
     44400  -32277.017      189.72688     -32087.29       186.66311      191.14822      151.12282    
     44500  -32268.397      185.63739     -32082.76       186.62872      191.11822      151.18465    
     44600  -32260.649      185.03093     -32075.618      186.59171      191.08446      151.24649    
     44700  -32247.823      186.31042     -32061.512      186.55504      191.04957      151.30832    
     44800  -32240.346      190.7046      -32049.642      186.52743      191.02308      151.37015    
     44900  -32228.16       188.72776     -32039.432      186.49636      190.99195      151.43199    
     45000  -32219.589      189.22441     -32030.364      186.4643       190.96292      151.49382    
     45100  -32211.308      187.21457     -32024.093      186.43499      190.94108      151.55566    
     45200  -32205.206      186.40978     -32018.796      186.39739      190.91033      151.61749    
     45300  -32195.842      186.59507     -32009.247      186.3638       190.88239      151.67933    
     45400  -32183.82       189.75586     -31994.064      186.33327      190.85467      151.74116    
     45500  -32171.494      188.00466     -31983.489      186.2978       190.81866      151.80299    
     45600  -32164.243      188.5245      -31975.719      186.26787      190.78777      151.86483    
     45700  -32158.317      189.48223     -31968.835      186.23658      190.75453      151.92666    
     45800  -32147.186      186.25044     -31960.936      186.20034      190.71478      151.9885     
     45900  -32137.168      188.15523     -31949.013      186.1698       190.68299      152.05033    
     46000  -32126.245      190.89362     -31935.351      186.13537      190.65094      152.11217    
     46100  -32118.541      191.84936     -31926.692      186.09871      190.61841      152.174      
     46200  -32111.615      189.36423     -31922.251      186.06715      190.59296      152.23583    
     46300  -32098.487      183.53926     -31914.948      186.03256      190.56358      152.29767    
     46400  -32092.941      188.09609     -31904.844      186.0006       190.53221      152.3595     
     46500  -32083.046      189.32155     -31893.725      185.97356      190.50222      152.42134    
     46600  -32068.668      188.29311     -31880.375      185.94241      190.46726      152.48317    
     46700  -32062.31       194.35465     -31867.955      185.91457      190.43663      152.545      
     46800  -32053.483      188.70237     -31864.781      185.88756      190.40473      152.60684    
     46900  -32046.43       188.21943     -31858.21       185.85505      190.36753      152.66867    
     47000  -32035.141      186.55664     -31848.584      185.82552      190.33983      152.73051    
     47100  -32024.758      188.07363     -31836.685      185.79461      190.31437      152.79234    
     47200  -32015.593      191.31072     -31824.282      185.75806      190.28386      152.85418    
     47300  -32007.907      193.13855     -31814.769      185.72687      190.25941      152.91601    
     47400  -32000.921      189.09452     -31811.826      185.69491      190.23051      152.97784    
     47500  -31991.958      187.54838     -31804.41       185.6605       190.19437      153.03968    
     47600  -31983.086      189.47008     -31793.616      185.63352      190.16302      153.10151    
     47700  -31972.936      191.82561     -31781.11       185.60429      190.12949      153.16335    
     47800  -31957.278      188.87271     -31768.405      185.57459      190.09808      153.22518    
     47900  -31950.992      192.10447     -31758.888      185.54834      190.07201      153.28702    
     48000  -31943.8        187.81403     -31755.986      185.51828      190.0418       153.34885    
     48100  -31938.365      189.22958     -31749.136      185.49019      190.01407      153.41068    
     48200  -31924.457      186.01034     -31738.446      185.46335      189.98877      153.47252    
     48300  -31914.733      190.09278     -31724.64       185.43173      189.95904      153.53435    
     48400  -31903.049      189.15798     -31713.891      185.40366      189.93193      153.59619    
     48500  -31894.459      187.9376      -31706.522      185.37613      189.90137      153.65802    
     48600  -31887.01       188.02392     -31698.986      185.34689      189.86751      153.71985    
     48700  -31879.024      188.8768      -31690.147      185.3216       189.83771      153.78169    
     48800  -31870.806      189.56856     -31681.237      185.29292      189.8066       153.84352    
     48900  -31860.966      189.35384     -31671.613      185.26219      189.77802      153.90536    
     49000  -31851.851      189.6078      -31662.243      185.23364      189.75319      153.96719    
     49100  -31840.408      185.92989     -31654.478      185.20414      189.72408      154.02903    
     49200  -31835.13       188.82211     -31646.307      185.17612      189.695        154.09086    
     49300  -31824.625      188.24471     -31636.381      185.14916      189.66658      154.15269    
     49400  -31811.402      188.10702     -31623.295      185.12286      189.63777      154.21453    
     49500  -31804.473      193.4875      -31610.985      185.09909      189.61069      154.27636    
     49600  -31793.701      189.59407     -31604.107      185.07244      189.58126      154.3382     
     49700  -31787.096      187.03288     -31600.063      185.04497      189.55095      154.40003    
     49800  -31775.455      185.63999     -31589.815      185.02027      189.52335      154.46187    
     49900  -31765.19       187.84375     -31577.347      184.99429      189.49621      154.5237     
     50000  -31755.872      189.83235     -31566.039      184.9687       189.47009      154.58553    
     50100  -31746.081      187.74404     -31558.337      184.94337      189.44506      154.64737    
     50200  -31741.152      185.95772     -31555.194      184.91674      189.42005      154.7092     
     50300  -31731.201      186.20874     -31544.992      184.89002      189.39361      154.77104    
     50400  -31719.75       187.8598      -31531.891      184.86201      189.36594      154.83287    
     50500  -31709.545      189.18451     -31520.361      184.83634      189.34157      154.8947     
     50600  -31698.761      187.37137     -31511.389      184.81023      189.31429      154.95654    
     50700  -31693.052      190.0098      -31503.042      184.7851       189.28493      155.01837    
     50800  -31685.156      190.72946     -31494.426      184.7625       189.25835      155.08021    
     50900  -31675.134      189.17812     -31485.956      184.73778      189.2299       155.14204    
     51000  -31662.171      185.88586     -31476.285      184.71406      189.20297      155.20388    
     51100  -31656.439      192.09455     -31464.344      184.69096      189.17836      155.26571    
     51200  -31639.235      187.8451      -31451.39       184.66432      189.15274      155.32754    
     51300  -31635.212      192.17372     -31443.038      184.63939      189.13067      155.38938    
     51400  -31626.281      187.30323     -31438.978      184.61219      189.10671      155.45121    
     51500  -31616.022      185.76594     -31430.256      184.58574      189.08269      155.51305    
     51600  -31608.942      189.71046     -31419.231      184.56479      189.06147      155.57488    
     51700  -31598.221      191.03952     -31407.181      184.54048      189.03344      155.63672    
     51800  -31586.571      190.30643     -31396.265      184.51623      189.00368      155.69855    
     51900  -31583.3        191.67307     -31391.627      184.49653      188.9798       155.76038    
     52000  -31571.52       186.44398     -31385.076      184.4725       188.95353      155.82222    
     52100  -31563.202      188.29809     -31374.904      184.44884      188.92901      155.88405    
     52200  -31551.636      188.73003     -31362.906      184.42547      188.90626      155.94589    
     52300  -31539.036      189.08011     -31349.956      184.39918      188.88139      156.00772    
     52400  -31528.705      189.80006     -31338.905      184.37593      188.85967      156.06955    
     52500  -31524.307      189.33131     -31334.976      184.35265      188.83667      156.13139    
     52600  -31516.86       188.9605      -31327.899      184.32807      188.81153      156.19322    
     52700  -31505.108      187.1859      -31317.922      184.30974      188.79249      156.25506    
     52800  -31496.439      189.10967     -31307.33       184.28956      188.76914      156.31689    
     52900  -31485.857      190.4267      -31295.431      184.2674       188.74347      156.37873    
     53000  -31476.133      192.30348     -31283.83       184.24723      188.72278      156.44056    
     53100  -31464.945      188.07147     -31276.874      184.22241      188.69895      156.50239    
     53200  -31460.037      188.47717     -31271.56       184.19703      188.67445      156.56423    
     53300  -31449.374      186.68413     -31262.69       184.17403      188.65215      156.62606    
     53400  -31440.474      187.42937     -31253.045      184.14877      188.62591      156.6879     
     53500  -31429.632      188.47305     -31241.159      184.12469      188.59909      156.74973    
     53600  -31420.023      192.72263     -31227.3        184.10379      188.57461      156.81157    
     53700  -31410.698      192.37487     -31218.323      184.08167      188.54838      156.8734     
     53800  -31399.557      185.8295      -31213.728      184.06155      188.52331      156.93523    
     53900  -31394.274      188.60297     -31205.671      184.04593      188.50252      156.99707    
     54000  -31382.39       186.67595     -31195.714      184.02881      188.48092      157.0589     
     54100  -31371.882      188.2954      -31183.587      184.01069      188.46001      157.12074    
     54200  -31362.695      193.94229     -31168.753      183.99288      188.44081      157.18257    
     54300  -31353.18       194.13232     -31159.048      183.97067      188.41892      157.2444     
     54400  -31346.551      191.13616     -31155.414      183.9502       188.40041      157.30624    
     54500  -31337.643      190.2469      -31147.396      183.92896      188.38017      157.36807    
     54600  -31326.593      187.55982     -31139.034      183.90414      188.3529       157.42991    
     54700  -31317.117      187.74598     -31129.371      183.88016      188.32495      157.49174    
     54800  -31307.621      187.71467     -31119.907      183.85632      188.29748      157.55358    
     54900  -31297.979      186.73591     -31111.243      183.83078      188.26961      157.61541    
     55000  -31289.969      187.92786     -31102.041      183.80871      188.24625      157.67724    
     55100  -31279.244      188.86429     -31090.38       183.78734      188.22568      157.73908    
     55200  -31268.653      191.16521     -31077.487      183.76712      188.20788      157.80091    
     55300  -31260.593      193.24725     -31067.345      183.749        188.19176      157.86275    
     55400  -31251.865      188.84741     -31063.017      183.73225      188.17585      157.92458    
     55500  -31241.805      187.4723      -31054.333      183.71688      188.16161      157.98642    
     55600  -31231.35       189.05476     -31042.295      183.69889      188.14311      158.04825    
     55700  -31219.569      189.62052     -31029.948      183.68085      188.12233      158.11008    
     55800  -31208.149      190.69218     -31017.457      183.66173      188.10025      158.17192    
     55900  -31198.268      189.65065     -31008.618      183.63976      188.07535      158.23375    
     56000  -31193.583      189.60003     -31003.983      183.61573      188.04969      158.29559    
     56100  -31181.491      185.00521     -30996.486      183.58809      188.0219       158.35742    
     56200  -31174.708      187.65733     -30987.051      183.56201      187.99556      158.41925    
     56300  -31162.616      187.71768     -30974.898      183.53905      187.97239      158.48109    
     56400  -31149.544      189.38607     -30960.158      183.51542      187.95068      158.54292    
     56500  -31141.525      191.51791     -30950.007      183.49456      187.93234      158.60476    
     56600  -31133.66       187.65737     -30946.003      183.47863      187.91727      158.66659    
     56700  -31126.279      189.16142     -30937.118      183.46222      187.90096      158.72843    
     56800  -31113.216      186.207       -30927.009      183.44892      187.88594      158.79026    
     56900  -31106.018      189.54159     -30916.477      183.43668      187.86961      158.85209    
     57000  -31095.999      188.36183     -30907.637      183.41809      187.84862      158.91393    
     57100  -31087.831      186.44058     -30901.39       183.39658      187.82813      158.97576    
     57200  -31077.863      185.32247     -30892.54       183.37439      187.80731      159.0376     
     57300  -31066.438      188.13691     -30878.301      183.34955      187.78076      159.09943    
     57400  -31055.005      191.22266     -30863.782      183.32676      187.75472      159.16127    
     57500  -31046.857      191.03041     -30855.826      183.30648      187.7321       159.2231     
     57600  -31039.201      190.07947     -30849.121      183.2822       187.70748      159.28493    
     57700  -31029.152      188.78105     -30840.371      183.25959      187.68698      159.34677    
     57800  -31018.372      187.78901     -30830.583      183.23904      187.66984      159.4086     
     57900  -31006.612      185.2082      -30821.404      183.2186       187.65016      159.47044    
     58000  -31002.237      187.36049     -30814.876      183.20439      187.6352       159.53227    
     58100  -30993.166      187.13191     -30806.034      183.18836      187.61796      159.59411    
     58200  -30979.365      188.15792     -30791.207      183.17191      187.59969      159.65594    
     58300  -30966.911      189.61617     -30777.295      183.15783      187.58248      159.71777    
     58400  -30959.67       191.22165     -30768.448      183.13906      187.55921      159.77961    
     58500  -30949.839      188.67551     -30761.163      183.11964      187.53641      159.84144    
     58600  -30940.518      188.24786     -30752.27       183.10026      187.51479      159.90328    
     58700  -30929.044      186.12551     -30742.919      183.0765       187.4913       159.96511    
     58800  -30922.414      189.36453     -30733.049      183.05227      187.47061      160.02694    
     58900  -30911.488      188.57632     -30722.911      183.02714      187.44905      160.08878    
     59000  -30898.783      185.21884     -30713.564      183.00444      187.42801      160.15061    
     59100  -30889.871      186.62185     -30703.249      182.98502      187.40684      160.21245    
     59200  -30879.921      187.33388     -30692.587      182.96819      187.38505      160.27428    
     59300  -30870.295      188.43167     -30681.863      182.95436      187.36463      160.33612    
     59400  -30861.788      189.36884     -30672.42       182.94045      187.34387      160.39795    
     59500  -30849.606      185.79889     -30663.808      182.92645      187.32578      160.45978    
     59600  -30842.178      186.97712     -30655.201      182.90803      187.30821      160.52162    
     59700  -30830.041      184.58864     -30645.453      182.88622      187.29001      160.58345    
     59800  -30821.452      187.97662     -30633.476      182.8639       187.2729       160.64529    
     59900  -30810.14       191.08275     -30619.058      182.84078      187.25437      160.70712    
     60000  -30800.623      192.59265     -30608.03       182.8175       187.2332       160.76896    
     60100  -30789.158      186.62552     -30602.533      182.79664      187.21027      160.83079    
     60200  -30780.092      186.45171     -30593.641      182.77584      187.18373      160.89262    
     60300  -30770.557      188.59066     -30581.966      182.75785      187.15963      160.95446    
     60400  -30760.695      189.25933     -30571.436      182.73899      187.13725      161.01629    
     60500  -30749.679      186.71496     -30562.964      182.71884      187.11632      161.07813    
     60600  -30743.842      188.10358     -30555.739      182.70143      187.10122      161.13996    
     60700  -30731.045      187.02332     -30544.022      182.68102      187.08484      161.20179    
     60800  -30718.13       190.3888      -30527.741      182.66232      187.0699       161.26363    
     60900  -30708.305      194.64475     -30513.66       182.64269      187.0535       161.32546    
     61000  -30694.463      188.75411     -30505.709      182.62262      187.03471      161.3873     
     61100  -30686.899      188.66643     -30498.233      182.60596      187.01646      161.44913    
     61200  -30679.729      189.73209     -30489.997      182.58666      186.99289      161.51097    
     61300  -30669.114      188.53376     -30480.58       182.56632      186.96867      161.5728     
     61400  -30660.639      189.84694     -30470.792      182.54549      186.94644      161.63463    
     61500  -30649.792      186.93933     -30462.852      182.51965      186.92021      161.69647    
     61600  -30641.998      186.60865     -30455.389      182.49687      186.89791      161.7583     
     61700  -30631.153      189.10001     -30442.053      182.47393      186.8773       161.82014    
     61800  -30616.916      190.72224     -30426.193      182.45113      186.85732      161.88197    
     61900  -30603.663      189.70788     -30413.956      182.43203      186.83975      161.94381    
     62000  -30596.116      191.0582      -30405.058      182.41345      186.81965      162.00564    
     62100  -30584.158      187.85903     -30396.299      182.39883      186.80145      162.06747    
     62200  -30577.94       190.63689     -30387.303      182.38373      186.78318      162.12931    
     62300  -30562.649      185.46905     -30377.18       182.36373      186.75989      162.19114    
     62400  -30555.096      189.56119     -30365.535      182.34906      186.74371      162.25298    
     62500  -30544.922      190.4876      -30354.434      182.32527      186.72143      162.31481    
     62600  -30532.344      189.29623     -30343.048      182.30002      186.69969      162.37664    
     62700  -30523.81       191.44836     -30332.362      182.27929      186.68152      162.43848    
     62800  -30509.816      188.05835     -30321.757      182.25217      186.65441      162.50031    
     62900  -30500.507      189.89844     -30310.609      182.23237      186.63411      162.56215    
     63000  -30488.312      188.06961     -30300.242      182.20807      186.60767      162.62398    
     63100  -30476.431      186.33234     -30290.099      182.1887       186.58365      162.68582    
     63200  -30467.713      188.20656     -30279.506      182.17364      186.56407      162.74765    
     63300  -30458.067      189.53621     -30268.531      182.15213      186.54021      162.80948    
     63400  -30448.539      191.68783     -30256.851      182.13794      186.52596      162.87132    
     63500  -30436.715      189.68261     -30247.033      182.11904      186.50819      162.93315    
     63600  -30426.226      187.96256     -30238.264      182.09951      186.48999      162.99499    
     63700  -30416.507      189.39394     -30227.113      182.08097      186.47238      163.05682    
     63800  -30402.064      187.25349     -30214.81       182.05743      186.44685      163.11866    
     63900  -30393.409      191.22676     -30202.183      182.03943      186.42371      163.18049    
     64000  -30381.785      190.28416     -30191.501      182.02018      186.39911      163.24232    
     64100  -30370.482      187.61577     -30182.866      181.99657      186.37202      163.30416    
     64200  -30365.399      187.68996     -30177.709      181.9781       186.35207      163.36599    
     64300  -30348.14       183.99609     -30164.144      181.9535       186.32725      163.42783    
     64400  -30335.022      187.63099     -30147.391      181.92919      186.30389      163.48966    
     64500  -30323.951      191.17371     -30132.777      181.90801      186.28377      163.55149    
     64600  -30313.402      189.8761      -30123.526      181.88313      186.25891      163.61333    
     64700  -30302.851      188.17754     -30114.673      181.86764      186.24253      163.67516    
     64800  -30293.661      190.02672     -30103.635      181.84553      186.22018      163.737      
     64900  -30279.209      187.87248     -30091.336      181.8278       186.20153      163.79883    
     65000  -30269.258      188.45424     -30080.804      181.81275      186.18508      163.86067    
     65100  -30260.653      187.78267     -30072.87       181.79082      186.16338      163.9225     
     65200  -30248.766      188.1594      -30060.606      181.76989      186.14453      163.98433    
     65300  -30231.896      186.42742     -30045.469      181.74601      186.12278      164.04617    
     65400  -30217.801      191.52393     -30026.277      181.71941      186.0973       164.108      
     65500  -30205.164      193.23831     -30011.925      181.69402      186.07231      164.16984    
     65600  -30195.076      192.11111     -30002.965      181.668        186.04683      164.23167    
     65700  -30182.913      188.49271     -29994.42       181.64523      186.02455      164.29351    
     65800  -30176.502      190.97304     -29985.529      181.6255       186.00485      164.35534    
     65900  -30164.731      188.86916     -29975.861      181.60714      185.98746      164.41717    
     66000  -30152.406      187.82738     -29964.578      181.59001      185.97107      164.47901    
     66100  -30140.699      187.27707     -29953.422      181.57212      185.95258      164.54084    
     66200  -30131.288      189.19053     -29942.097      181.55307      185.93222      164.60268    
     66300  -30119.197      185.87229     -29933.325      181.53146      185.90846      164.66451    
     66400  -30107.783      186.22078     -29921.563      181.50769      185.88322      164.72634    
     66500  -30093.299      188.88428     -29904.414      181.48195      185.85817      164.78818    
     66600  -30076.373      189.43911     -29886.934      181.45631      185.83453      164.85001    
     66700  -30065.896      191.84065     -29874.056      181.43113      185.81062      164.91185    
     66800  -30051.461      187.78331     -29863.678      181.40931      185.78959      164.97368    
     66900  -30040.495      187.79173     -29852.703      181.38889      185.76913      165.03552    
     67000  -30032.539      191.16403     -29841.375      181.3668       185.7451       165.09735    
     67100  -30015.448      187.23354     -29828.215      181.34943      185.72392      165.15918    
     67200  -30005.133      189.19221     -29815.941      181.32873      185.70051      165.22102    
     67300  -29994.39       187.01057     -29807.379      181.30784      185.67813      165.28285    
     67400  -29981.594      187.65228     -29793.942      181.28885      185.65777      165.34469    
     67500  -29969.926      191.26666     -29778.659      181.26538      185.63368      165.40652    
     67600  -29953.268      189.40835     -29763.859      181.24436      185.61269      165.46836    
     67700  -29937.958      185.68343     -29752.275      181.22119      185.59077      165.53019    
     67800  -29929.627      188.25546     -29741.372      181.19723      185.56826      165.59202    
     67900  -29916.31       189.25168     -29727.058      181.17555      185.54604      165.65386    
     68000  -29902.107      189.46757     -29712.64       181.15415      185.52099      165.71569    
     68100  -29890.609      191.00498     -29699.604      181.13465      185.49637      165.77753    
     68200  -29878.464      191.13154     -29687.333      181.11578      185.47353      165.83936    
     68300  -29862.124      189.22372     -29672.9        181.09134      185.44889      165.90119    
     68400  -29849.107      189.63955     -29659.468      181.06728      185.42604      165.96303    
     68500  -29835.688      187.6842      -29648.004      181.04469      185.40347      166.02486    
     68600  -29827.077      190.90069     -29636.177      181.0211       185.37828      166.0867     
     68700  -29812.785      191.12463     -29621.66       181.00172      185.3557       166.14853    
     68800  -29801.716      193.46025     -29608.256      180.98155      185.33175      166.21037    
     68900  -29781.501      187.64248     -29593.858      180.96169      185.30837      166.2722     
     69000  -29768.51       190.0586      -29578.452      180.9427       185.28623      166.33403    
     69100  -29753.349      189.25599     -29564.093      180.9177       185.26014      166.39587    
     69200  -29738.866      187.2029      -29551.663      180.89549      185.23808      166.4577     
     69300  -29727.559      189.51946     -29538.04       180.87391      185.21524      166.51954    
     69400  -29715.204      191.61311     -29523.591      180.85064      185.18908      166.58137    
     69500  -29700.38       190.28568     -29510.094      180.83185      185.16734      166.64321    
     69600  -29689.106      193.66703     -29495.438      180.80789      185.1414       166.70504    
     69700  -29670.692      189.86862     -29480.823      180.78641      185.11823      166.76687    
     69800  -29657.987      191.00433     -29466.983      180.76428      185.09485      166.82871    
     69900  -29643.055      189.59827     -29453.457      180.7401       185.06916      166.89054    
     70000  -29630.36       190.71203     -29439.648      180.71864      185.04669      166.95238    
     70100  -29616.911      192.07464     -29424.837      180.69427      185.02243      167.01421    
     70200  -29602.111      192.01733     -29410.094      180.67131      185.00073      167.07604    
     70300  -29588.527      193.42633     -29395.101      180.64836      184.97881      167.13788    
     70400  -29567.239      186.91905     -29380.32       180.62627      184.95666      167.19971    
     70500  -29557.019      190.14236     -29366.877      180.60584      184.9345       167.26155    
     70600  -29547.413      194.54326     -29352.87       180.58284      184.91007      167.32338    
     70700  -29530.085      192.62599     -29337.459      180.56134      184.88744      167.38522    
     70800  -29513.846      191.12036     -29322.726      180.53686      184.86162      167.44705    
     70900  -29501.153      193.11757     -29308.035      180.51256      184.83608      167.50888    
     71000  -29485.693      192.14856     -29293.544      180.48844      184.8123       167.57072    
     71100  -29468.589      190.29713     -29278.292      180.46517      184.7901       167.63255    
     71200  -29457.655      193.25931     -29264.396      180.44337      184.77121      167.69439    
     71300  -29446.255      195.43874     -29250.817      180.42064      184.75125      167.75622    
     71400  -29426.641      191.83017     -29234.811      180.39811      184.72935      167.81806    
     71500  -29411.673      191.90971     -29219.763      180.37621      184.70619      167.87989    
     71600  -29396.46       192.38439     -29204.075      180.35149      184.68083      167.94172    
     71700  -29379.642      191.45938     -29188.183      180.33012      184.66057      168.00356    
     71800  -29365.477      193.11891     -29172.358      180.30671      184.63925      168.06539    
     71900  -29348.339      191.77245     -29156.567      180.28466      184.61864      168.12723    
     72000  -29332.898      191.29396     -29141.604      180.26148      184.59759      168.18906    
     72100  -29319.344      192.61475     -29126.73       180.23311      184.57319      168.25089    
     72200  -29304.224      194.24932     -29109.974      180.20715      184.55096      168.31273    
     72300  -29288.95       192.9177      -29096.032      180.18176      184.52726      168.37456    
     72400  -29274.169      192.96531     -29081.204      180.16007      184.50571      168.4364     
     72500  -29255.823      191.09656     -29064.726      180.1389       184.4833       168.49823    
     72600  -29240.922      193.54529     -29047.376      180.11742      184.4613       168.56007    
     72700  -29226.049      194.17788     -29031.871      180.09524      184.43944      168.6219     
[...]
     81600  -34102.466      196.76894     -33905.697      179.78386      186.25629      174.12515    
     81700  -34110.676      188.77466     -33921.901      179.79408      186.30352      174.18698    
     81800  -34115.136      181.12046     -33934.016      179.79352      186.3394       174.24881    
     81900  -34120.687      188.02239     -33932.665      179.79483      186.37803      174.31065    
     82000  -34115.027      187.80967     -33927.217      179.79516      186.42133      174.37248    
     82100  -34114.237      189.02305     -33925.214      179.78991      186.46133      174.43432    
     82200  -34117.267      192.76109     -33924.506      179.79734      186.51117      174.49615    
     82300  -34117.003      189.6971      -33927.306      179.80672      186.56197      174.55798    
     82400  -34115.195      185.27918     -33929.916      179.80502      186.60205      174.61982    
     82500  -34116.161      188.13146     -33928.03       179.79541      186.64005      174.68165    
     82600  -34109.756      187.56152     -33922.195      179.78442      186.68192      174.74349    
     82700  -34109.348      192.40666     -33916.941      179.77782      186.72795      174.80532    
     82800  -34108.965      192.07347     -33916.892      179.77291      186.77619      174.86716    
     82900  -34110.804      189.19307     -33921.611      179.77138      186.82678      174.92899    
     83000  -34115.716      185.79851     -33929.918      179.76498      186.87507      174.99082    
     83100  -34122.418      187.33556     -33935.082      179.75421      186.9211       175.05266    
     83200  -34119.442      187.18352     -33932.258      179.74373      186.96433      175.11449    
     83300  -34114.751      190.2491      -33924.502      179.73494      187.00751      175.17633    
     83400  -34111.509      193.17489     -33918.334      179.72459      187.05182      175.23816    
     83500  -34110.352      190.76859     -33919.583      179.71757      187.10314      175.3        
     83600  -34109.133      181.63602     -33927.497      179.70771      187.1451       175.36183    
     83700  -34111.364      182.9888      -33928.375      179.70123      187.17834      175.42366    
     83800  -34109.294      187.39515     -33921.899      179.69613      187.21381      175.4855     
     83900  -34108.52       191.62576     -33916.894      179.68782      187.25137      175.54733    
     84000  -34109.87       191.71576     -33918.154      179.67648      187.28475      175.60917    
     84100  -34107.066      187.08892     -33919.977      179.67105      187.32464      175.671      
     84200  -34109.698      189.57068     -33920.127      179.67048      187.37309      175.73283    
     84300  -34106.325      187.36778     -33918.957      179.66431      187.41098      175.79467    
     84400  -34104.097      189.10738     -33914.99       179.66493      187.45667      175.8565     
     84500  -34103.14       189.62346     -33913.516      179.66461      187.50536      175.91834    
     84600  -34106.037      189.18245     -33916.854      179.66158      187.55366      175.98017    
     84700  -34104.612      183.82385     -33920.788      179.66041      187.60465      176.04201    
     84800  -34109.275      189.77155     -33919.504      179.6568       187.648        176.10384    
     84900  -34106.46       192.65873     -33913.801      179.65458      187.69516      176.16567    
     85000  -34102.497      190.49579     -33912.002      179.65504      187.7438       176.22751    
     85100  -34106.032      188.52841     -33917.504      179.64835      187.77606      176.28934    
     85200  -34108.768      186.03162     -33922.736      179.64314      187.80602      176.35118    
     85300  -34109.073      187.01694     -33922.056      179.63787      187.83658      176.41301    
     85400  -34105.216      190.19039     -33915.026      179.63263      187.86729      176.47485    
     85500  -34101.369      192.2579      -33909.111      179.63092      187.90725      176.53668    
     85600  -34103.906      192.52857     -33911.377      179.63486      187.95659      176.59851    
     85700  -34104.639      185.36096     -33919.278      179.63773      188.00157      176.66035    
     85800  -34104.896      181.53035     -33923.365      179.63871      188.04489      176.72218    
     85900  -34104.604      185.58063     -33919.023      179.64048      188.08304      176.78402    
     86000  -34104.762      192.08709     -33912.675      179.64384      188.1087       176.84585    
     86100  -34108.209      194.52443     -33913.684      179.65155      188.13905      176.90768    
     86200  -34112.004      190.31691     -33921.687      179.65634      188.16742      176.96952    
     86300  -34121.009      189.01063     -33931.998      179.65929      188.20104      177.03135    
     86400  -34116.503      179.26985     -33937.233      179.65753      188.23892      177.09319    
     86500  -34113.893      182.41561     -33931.478      179.65175      188.27217      177.15502    
     86600  -34115.255      195.73555     -33919.52       179.6504       188.3181       177.21686    
     86700  -34107.903      194.87209     -33913.031      179.6504       188.35838      177.27869    
     86800  -34106.729      188.18942     -33918.539      179.65073      188.3859       177.34052    
     86900  -34113.922      184.82628     -33929.096      179.65447      188.41924      177.40236    
     87000  -34116.306      183.13327     -33933.172      179.65678      188.4541       177.46419    
     87100  -34115.683      186.94999     -33928.733      179.65254      188.48354      177.52603    
     87200  -34113.282      191.41616     -33921.866      179.64693      188.52085      177.58786    
     87300  -34115.087      194.65665     -33920.43       179.63963      188.54867      177.6497     
     87400  -34113.181      187.8537      -33925.327      179.63348      188.57042      177.71153    
     87500  -34116.552      185.98398     -33930.568      179.63301      188.59805      177.77336    
     87600  -34118.489      187.72683     -33930.762      179.63235      188.61814      177.8352     
     87700  -34114.066      186.7431      -33927.323      179.63239      188.63704      177.89703    
     87800  -34117.459      192.02272     -33925.436      179.63175      188.66675      177.95887    
     87900  -34115.324      187.41442     -33927.91       179.62423      188.68639      178.0207     
     88000  -34120.537      186.30937     -33934.228      179.61727      188.70974      178.08253    
     88100  -34123.973      185.05329     -33938.92       179.61296      188.73107      178.14437    
     88200  -34127.245      189.27763     -33937.968      179.60151      188.73673      178.2062     
     88300  -34118.841      186.4331      -33932.408      179.59641      188.75482      178.26804    
     88400  -34115.313      189.07529     -33926.237      179.58923      188.76687      178.32987    
     88500  -34115.377      189.41186     -33925.965      179.58382      188.77563      178.39171    
     88600  -34119.868      189.56541     -33930.303      179.57775      188.78849      178.45354    
     88700  -34121.869      186.9263      -33934.942      179.57641      188.81336      178.51537    
     88800  -34122.699      186.51462     -33936.185      179.57105      188.8336       178.57721    
     88900  -34121.094      187.63067     -33933.464      179.56602      188.85405      178.63904    
     89000  -34122.103      191.84398     -33930.259      179.56493      188.87469      178.70088    
     89100  -34114.884      185.707       -33929.177      179.56453      188.89336      178.76271    
     89200  -34123.7        191.70263     -33931.997      179.56663      188.91823      178.82455    
     89300  -34123.657      186.77923     -33936.877      179.56653      188.93025      178.88638    
     89400  -34119.836      182.35311     -33937.483      179.56909      188.9363       178.94821    
     89500  -34119.925      187.96301     -33931.962      179.57461      188.94736      179.01005    
     89600  -34117.326      192.35005     -33924.976      179.58157      188.95677      179.07188    
     89700  -34118.508      194.16709     -33924.341      179.5926       188.96759      179.13372    
     89800  -34116.975      186.01271     -33930.962      179.60117      188.97731      179.19555    
     89900  -34121.629      185.67541     -33935.954      179.60968      188.98499      179.25738    
     90000  -34122.236      188.81591     -33933.42       179.62346      188.99599      179.31922    
     90100  -34113.769      187.69361     -33926.075      179.64398      189.00716      179.38105    
     90200  -34113.423      193.09831     -33920.325      179.66321      189.01176      179.44289    
     90300  -34111.686      192.7414      -33918.944      179.68074      189.02351      179.50472    
     90400  -34109.747      186.51956     -33923.228      179.69414      189.03445      179.56656    
     90500  -34118.106      190.07099     -33928.035      179.70535      189.03929      179.62839    
     90600  -34109.6        181.69477     -33927.906      179.72208      189.04563      179.69022    
     90700  -34111.065      189.09856     -33921.966      179.74014      189.0518       179.75206    
     90800  -34107.783      192.01665     -33915.767      179.76509      189.06465      179.81389    
     90900  -34107.943      192.26217     -33915.681      179.78824      189.07582      179.87573    
     91000  -34106.884      187.05056     -33919.833      179.80723      189.08548      179.93756    
     91100  -34108.71       185.27766     -33923.433      179.82522      189.10357      179.9994     
     91200  -34110.069      187.13157     -33922.937      179.84022      189.11803      180.06123    
     91300  -34107.485      187.22283     -33920.262      179.85535      189.13101      180.12306    
     91400  -34103.889      187.86659     -33916.022      179.8725       189.15069      180.1849     
     91500  -34100.859      187.5135      -33913.345      179.88748      189.17038      180.24673    
     91600  -34105.61       191.20795     -33914.402      179.90206      189.19538      180.30857    
     91700  -34102.543      183.96562     -33918.578      179.91862      189.2195       180.3704     
     91800  -34107.845      186.64047     -33921.204      179.93589      189.23945      180.43223    
     91900  -34105.067      184.59976     -33920.467      179.95407      189.25998      180.49407    
     92000  -34104.468      187.78559     -33916.682      179.97695      189.28386      180.5559     
     92100  -34106.464      192.18533     -33914.279      179.99823      189.31106      180.61774    
     92200  -34106.234      190.23245     -33916.002      180.01625      189.34022      180.67957    
     92300  -34107.833      187.8986      -33919.934      180.03661      189.37212      180.74141    
     92400  -34109.423      186.36583     -33923.057      180.05492      189.40567      180.80324    
     92500  -34110.341      187.38939     -33922.952      180.07711      189.44143      180.86507    
     92600  -34105.355      185.75534     -33919.6        180.10112      189.48004      180.92691    
     92700  -34107.658      192.17446     -33915.483      180.12526      189.5174       180.98874    
     92800  -34105.047      190.26216     -33914.785      180.14606      189.55378      181.05058    
     92900  -34106.603      188.59554     -33918.007      180.16834      189.59315      181.11241    
     93000  -34109.356      187.27026     -33922.086      180.18949      189.6328       181.17425    
     93100  -34108.572      186.51515     -33922.057      180.205        189.67153      181.23608    
     93200  -34107.693      189.72409     -33917.968      180.22653      189.72137      181.29791    
     93300  -34105.777      192.45062     -33913.326      180.24823      189.76782      181.35975    
     93400  -34105.126      192.40685     -33912.719      180.26964      189.80528      181.42158    
     93500  -34103.428      186.1944      -33917.234      180.29109      189.84785      181.48342    
     93600  -34107.854      188.02059     -33919.834      180.30596      189.88956      181.54525    
     93700  -34104.764      188.04634     -33916.718      180.32583      189.93813      181.60709    
     93800  -34102.378      190.20864     -33912.169      180.34164      189.98022      181.66892    
     93900  -34100.983      189.90881     -33911.074      180.35766      190.02422      181.73075    
     94000  -34104.13       190.10031     -33914.03       180.3746       190.07248      181.79259    
     94100  -34103.039      185.43311     -33917.606      180.39434      190.11953      181.85442    
     94200  -34104.79       187.27453     -33917.516      180.41529      190.16389      181.91626    
     94300  -34102.525      190.51565     -33912.009      180.42889      190.20528      181.97809    
     94400  -34094.565      188.19232     -33906.373      180.44312      190.2487       182.03992    
     94500  -34096.935      190.67458     -33906.261      180.45535      190.28923      182.10176    
     94600  -34100.266      188.33203     -33911.934      180.46805      190.33083      182.16359    
     94700  -34101.885      184.26503     -33917.619      180.47858      190.37347      182.22543    
     94800  -34103.938      186.98798     -33916.95       180.48608      190.4165       182.28726    
     94900  -34100.207      189.52142     -33910.686      180.49284      190.45793      182.3491     
     95000  -34094.431      190.48349     -33903.947      180.50066      190.49527      182.41093    
     95100  -34093.95       191.72228     -33902.227      180.51159      190.53812      182.47276    
     95200  -34095.242      188.42576     -33906.816      180.5199       190.58102      182.5346     
     95300  -34097.844      185.74402     -33912.1        180.52771      190.62993      182.59643    
     95400  -34096.949      184.79801     -33912.151      180.53531      190.67681      182.65827    
     95500  -34092.242      185.15175     -33907.09       180.53295      190.71412      182.7201     
     95600  -34094.437      193.83484     -33900.602      180.53395      190.75417      182.78194    
     95700  -34088.274      188.95266     -33899.321      180.52988      190.78868      182.84377    
     95800  -34091.273      187.38365     -33903.889      180.52324      190.82079      182.9056     
     95900  -34093.054      184.59365     -33908.46       180.5263       190.86527      182.96744    
     96000  -34092.944      183.36547     -33909.578      180.52783      190.90794      183.02927    
     96100  -34094.7        188.989       -33905.711      180.51835      190.93716      183.09111    
     96200  -34091.168      190.00164     -33901.167      180.50999      190.97377      183.15294    
     96300  -34093.76       193.007       -33900.753      180.50287      191.01707      183.21477    
     96400  -34088.167      183.75678     -33904.41       180.49008      191.05669      183.27661    
     96500  -34094.287      187.06849     -33907.218      180.48362      191.10384      183.33844    
     96600  -34091.252      185.2029      -33906.049      180.4748       191.14702      183.40028    
     96700  -34091.841      190.87242     -33900.968      180.46074      191.18651      183.46211    
     96800  -34085.873      189.2705      -33896.602      180.44967      191.23018      183.52395    
     96900  -34086.678      189.84171     -33896.836      180.4357       191.27063      183.58578    
     97000  -34088.923      187.82135     -33901.101      180.42411      191.31736      183.64761    
     97100  -34093.053      186.36162     -33906.692      180.41746      191.36959      183.70945    
     97200  -34092.528      183.81073     -33908.717      180.40792      191.42163      183.77128    
     97300  -34088.578      185.08272     -33903.495      180.39529      191.47169      183.83312    
     97400  -34085.606      191.64968     -33893.957      180.38446      191.5216       183.89495    
     97500  -34081.976      190.90033     -33891.076      180.37067      191.56481      183.95679    
     97600  -34090.93       194.04554     -33896.884      180.36181      191.61857      184.01862    
     97700  -34086.796      182.25929     -33904.536      180.35608      191.67881      184.08045    
     97800  -34089.383      183.70998     -33905.673      180.34728      191.73202      184.14229    
     97900  -34087.278      187.45052     -33899.827      180.3384       191.7886       184.20412    
     98000  -34083.798      192.01524     -33891.783      180.33012      191.85041      184.26596    
     98100  -34080.384      190.77492     -33889.609      180.32         191.90951      184.32779    
     98200  -34084.992      189.38129     -33895.611      180.30778      191.96407      184.38962    
     98300  -34086.31       183.5982      -33902.711      180.29705      192.02041      184.45146    
     98400  -34086.88       184.42967     -33902.45       180.28316      192.07233      184.51329    
     98500  -34085.55       189.01759     -33896.533      180.27091      192.12314      184.57513    
     98600  -34080.917      189.97199     -33890.945      180.25956      192.1693       184.63696    
     98700  -34075.464      185.525       -33889.939      180.25169      192.21623      184.6988     
     98800  -34080.714      187.1875      -33893.526      180.24861      192.26554      184.76063    
     98900  -34092.882      192.19083     -33900.691      180.24674      192.31481      184.82246    
     99000  -34103.784      187.94161     -33915.842      180.24571      192.36355      184.8843     
     99100  -34115.99       184.03468     -33931.956      180.24354      192.41603      184.94613    
     99200  -34118.868      181.99742     -33936.87       180.24344      192.46366      185.00797    
     99300  -34113.189      185.96708     -33927.222      180.24544      192.50491      185.0698     
     99400  -34103.081      190.69118     -33912.39       180.2477       192.54802      185.13164    
     99500  -34099.795      194.29661     -33905.498      180.24927      192.58355      185.19347    
     99600  -34108.014      192.92197     -33915.092      180.25714      192.62084      185.2553     
     99700  -34114.228      184.10188     -33930.126      180.26966      192.66506      185.31714    
     99800  -34117.192      181.90586     -33935.286      180.279        192.70197      185.37897    
     99900  -34109.008      182.8026      -33926.206      180.28792      192.73732      185.44081    
    100000  -34105.986      194.7025      -33911.283      180.29619      192.76998      185.50264    
Loop time of 32533.1 on 12 procs for 100000 steps with 4860 atoms

Performance: 0.266 ns/day, 90.370 hours/ns, 3.074 timesteps/s, 14.939 katom-step/s
42.7% CPU use with 12 MPI tasks x 1 OpenMP threads

MPI task timing breakdown:
Section |  min time  |  avg time  |  max time  |%varavg| %total
---------------------------------------------------------------
Pair    | 0.65703    | 1451.2     | 4893.5     |5394.9 |  4.46
Neigh   | 0.014195   | 9.0039     | 32.769     | 427.6 |  0.03
Comm    | 204.66     | 1695       | 4053.7     |3694.1 |  5.21
Output  | 104.87     | 108.28     | 111.21     |  19.9 |  0.33
Modify  | 21063      | 26127      | 29075      |2200.5 | 80.31
Other   |            | 3142       |            |       |  9.66

Nlocal:            405 ave        1834 max           0 min
Histogram: 8 0 1 0 0 1 0 1 0 1
Nghost:            740 ave        2329 max           0 min
Histogram: 4 4 0 0 0 1 0 2 0 1
Neighs:              0 ave           0 max           0 min
Histogram: 12 0 0 0 0 0 0 0 0 0

Total # of neighbors = 0
Ave neighs/atom = 0
Neighbor list builds = 638
Dangerous builds = 0
Total wall time: 9:02:19
