LAMMPS (2 Aug 2023 - Update 3)
OMP_NUM_THREADS environment is not set. Defaulting to 1 thread. (src/comm.cpp:98)
  using 1 OpenMP thread(s) per MPI task
Reading data file ...
  orthogonal box = (-100 -100 -2.331251) to (100 100 38.891558)
  3 by 4 by 1 MPI processor grid
  reading atoms ...
  920 atoms
  read_data CPU = 0.152 seconds
Replication is creating a 1x1x17 = 17 times larger system...
  orthogonal box = (-100 -100 -2.331251) to (100 100 698.4565)
  1 by 2 by 6 MPI processor grid
  15640 atoms
  replicate CPU = 0.184 seconds
4080 atoms in group SR
Deleted 4080 atoms, new total = 11560
System init for write_data ...
WARNING: Communication cutoff is 0.0. No ghost atoms will be generated. Atoms may get lost. (src/comm_brick.cpp:210)
Reading airebo potential file CH.airebo with DATE: 2011-10-25
Reading airebo potential file CH.airebo with DATE: 2011-10-25
Neighbor list info ...
  update: every = 1 steps, delay = 0 steps, check = yes
  max neighbors/atom: 2000, page size: 100000
  master list distance cutoff = 13.2
  ghost atom cutoff = 13.2
  binsize = 6.6, bins = 31 31 107
  5 neighbor lists, perpetual/occasional/extra = 5 0 0
  (1) pair airebo, perpetual, skip from (4)
      attributes: full, newton on, ghost
      pair build: skip/ghost
      stencil: none
      bin: none
  (2) pair airebo, perpetual, skip from (4)
      attributes: full, newton on, ghost
      pair build: skip/ghost
      stencil: none
      bin: none
  (3) pair lj/cut, perpetual, skip from (5)
      attributes: half, newton on, cut 13
      pair build: skip
      stencil: none
      bin: none
  (4) neighbor class addition, perpetual
      attributes: full, newton on, ghost
      pair build: full/bin/ghost
      stencil: full/ghost/bin/3d
      bin: standard
  (5) neighbor class addition, perpetual
      attributes: half, newton on, cut 13
      pair build: half/bin/atomonly/newton
      stencil: half/bin/3d
      bin: standard
Setting up sd style minimization ...
  Unit style    : metal
  Current step  : 0
Per MPI rank memory allocation (min/avg/max) = 10.62 | 11 | 11.39 Mbytes
   Step          Temp          E_pair         E_mol          TotEng         Press     
         0   0             -85539.084      0             -85539.084     -0.21847277   
         1   0             -85539.494      0             -85539.494     -0.39920433   
Loop time of 0.284412 on 12 procs for 1 steps with 11560 atoms

55.2% CPU use with 12 MPI tasks x 1 OpenMP threads

Minimization stats:
  Stopping criterion = energy tolerance
  Energy initial, next-to-last, final = 
     -85539.0835591334  -85539.0835591334  -85539.4939239058
  Force two-norm initial, final = 10.55875 1.0117986
  Force max component initial, final = 0.098019031 0.0093756234
  Final line search alpha, max atom move = 1 0.0093756234
  Iterations, force evaluations = 1 2

MPI task timing breakdown:
Section |  min time  |  avg time  |  max time  |%varavg| %total
---------------------------------------------------------------
Pair    | 0.041787   | 0.056808   | 0.089084   |   5.7 | 19.97
Neigh   | 0          | 0          | 0          |   0.0 |  0.00
Comm    | 0.032924   | 0.071519   | 0.10244    |   8.0 | 25.15
Output  | 0          | 0          | 0          |   0.0 |  0.00
Modify  | 0          | 0          | 0          |   0.0 |  0.00
Other   |            | 0.1561     |            |       | 54.88

Nlocal:        963.333 ave        1019 max         912 min
Histogram: 6 0 0 0 0 0 0 0 4 2
Nghost:        1396.67 ave        1448 max        1341 min
Histogram: 2 4 0 0 0 0 0 0 0 6
Neighs:              0 ave           0 max           0 min
Histogram: 12 0 0 0 0 0 0 0 0 0

Total # of neighbors = 0
Ave neighs/atom = 0
Neighbor list builds = 0
Dangerous builds = 0
Setting up Verlet run ...
  Unit style    : metal
  Current step  : 1
  Time step     : 0.001
Per MPI rank memory allocation (min/avg/max) = 12.01 | 12.01 | 12.01 Mbytes
   Step          Temp          E_pair         E_mol          TotEng         Press          Volume    
         1   300           -85539.494      0             -85091.259      16.680438      28031510     
Loop time of 0.0206673 on 12 procs for 0 steps with 11560 atoms

45.1% CPU use with 12 MPI tasks x 1 OpenMP threads

MPI task timing breakdown:
Section |  min time  |  avg time  |  max time  |%varavg| %total
---------------------------------------------------------------
Pair    | 0          | 0          | 0          |   0.0 |  0.00
Neigh   | 0          | 0          | 0          |   0.0 |  0.00
Comm    | 0          | 0          | 0          |   0.0 |  0.00
Output  | 0          | 0          | 0          |   0.0 |  0.00
Modify  | 0          | 0          | 0          |   0.0 |  0.00
Other   |            | 0.02067    |            |       |100.00

Nlocal:        963.333 ave         970 max         960 min
Histogram: 8 0 0 0 0 0 0 0 0 4
Nghost:        1396.67 ave        1400 max        1390 min
Histogram: 4 0 0 0 0 0 0 0 0 8
Neighs:              0 ave           0 max           0 min
Histogram: 12 0 0 0 0 0 0 0 0 0

Total # of neighbors = 0
Ave neighs/atom = 0
Neighbor list builds = 0
Dangerous builds = 0
WARNING: New thermo_style command, previous thermo_modify settings will be lost (src/output.cpp:903)
WARNING: Dump 2 includes no atom IDs and is not sorted by ID. This may complicate post-processing tasks or visualization (src/dump.cpp:221)
Setting up Verlet run ...
  Unit style    : metal
  Current step  : 0
  Time step     : 0.001
Per MPI rank memory allocation (min/avg/max) = 13.51 | 13.51 | 13.51 Mbytes
   Step         PotEng         KinEng         TotEng           Lx             Ly             Lz      
         0  -85539.494      448.2354      -85091.259      200            200            700.78775    
       100  -85279.11       219.84917     -85059.261      200.00646      200.00647      701.13815    
       200  -85291.112      275.99374     -85015.118      200.00471      200.00484      701.48854    
       300  -85253.426      290.80325     -84962.623      200.01157      200.01209      701.83893    
       400  -85216.722      311.91555     -84904.806      200.00918      200.01024      702.18933    
       500  -85190.252      346.67504     -84843.577      200.01645      200.01842      702.53972    
       600  -85157.736      376.02965     -84781.706      200.01154      200.01487      702.89012    
       700  -85132.149      410.12417     -84722.025      200.01986      200.02455      703.24051    
       800  -85106.429      436.87635     -84669.552      200.01467      200.0213       703.5909     
       900  -85089.452      459.4781      -84629.974      200.022        200.03098      703.9413     
      1000  -85070.082      457.34318     -84612.739      200.0158       200.02728      704.29169    
      1100  -85080.903      458.5278      -84622.376      200.02209      200.03609      704.64209    
      1200  -85094.992      451.34646     -84643.646      200.01654      200.03326      704.99248    
      1300  -85090.547      433.91875     -84656.628      200.02215      200.04133      705.34287    
      1400  -85089.174      439.69759     -84649.476      200.01658      200.03811      705.69327    
      1500  -85078.372      448.82076     -84629.551      200.02116      200.04501      706.04366    
      1600  -85066.638      454.92324     -84611.714      200.01602      200.04162      706.39406    
      1700  -85063.975      454.03612     -84609.939      200.02095      200.04839      706.74445    
      1800  -85077.551      455.46963     -84622.081      200.01513      200.04415      707.09484    
      1900  -85070.585      437.22133     -84633.364      200.01978      200.04997      707.44524    
      2000  -85074.089      443.28021     -84630.809      200.0141       200.0452       707.79563    
      2100  -85067.11       452.72286     -84614.387      200.01882      200.05112      708.14602    
      2200  -85055.637      457.13296     -84598.504      200.01355      200.04675      708.49642    
      2300  -85050.86       455.33328     -84595.527      200.0172       200.05112      708.84681    
      2400  -85047.283      444.22826     -84603.055      200.01179      200.04629      709.19721    
      2500  -85053.354      443.017       -84610.337      200.01508      200.04993      709.5476     
      2600  -85055.383      447.94159     -84607.442      200.01001      200.04547      709.89799    
      2700  -85041.897      446.1582      -84595.738      200.01206      200.04855      710.24839    
      2800  -85034.933      454.76377     -84580.17       200.00615      200.04403      710.59878    
      2900  -85022.458      450.57947     -84571.879      200.00769      200.04702      710.94918    
      3000  -85023.236      449.62878     -84573.607      200.00171      200.04264      711.29957    
      3100  -85027.617      446.93085     -84580.686      200.00293      200.04537      711.64996    
      3200  -85024.929      443.50345     -84581.425      199.99599      200.0399       712.00036    
      3300  -85011.259      440.37059     -84570.888      199.99694      200.04277      712.35075    
      3400  -85005.571      450.18469     -84555.386      199.98993      200.03734      712.70114    
      3500  -84997.375      452.15745     -84545.218      199.99049      200.03989      713.05154    
      3600  -84997.68       453.67525     -84544.005      199.98276      200.03423      713.40193    
      3700  -84995.6        445.5689      -84550.031      199.98187      200.03579      713.75233    
      3800  -84994.888      444.04876     -84550.84       199.97412      200.03055      714.10272    
      3900  -84980.172      437.53614     -84542.636      199.97276      200.03188      714.45311    
      4000  -84971.293      444.74093     -84526.553      199.96473      200.02653      714.80351    
      4100  -84962.824      449.40432     -84513.419      199.96222      200.02682      715.1539     
      4200  -84960.048      452.70532     -84507.343      199.95399      200.02138      715.5043     
      4300  -84957.29       448.06158     -84509.228      199.95154      200.0212       715.85469    
      4400  -84954.518      443.31498     -84511.203      199.94336      200.01502      716.20508    
      4500  -84950.943      442.90998     -84508.033      199.94038      200.01363      716.55548    
      4600  -84944.468      448.35295     -84496.115      199.9324       200.0066       716.90587    
      4700  -84932.952      451.91126     -84481.041      199.92966      200.00457      717.25627    
      4800  -84925.5        454.32394     -84471.176      199.92166      199.99696      717.60666    
      4900  -84920.128      449.99297     -84470.135      199.91843      199.99381      717.95705    
      5000  -84916.7        446.00881     -84470.691      199.90993      199.98573      718.30745    
      5100  -84909.651      442.71858     -84466.933      199.90596      199.98191      718.65784    
      5200  -84906.438      450.89034     -84455.548      199.8976       199.97414      719.00823    
      5300  -84892.687      451.27369     -84441.414      199.89267      199.96998      719.35863    
      5400  -84886.361      456.04872     -84430.313      199.88359      199.96207      719.70902    
      5500  -84874.173      448.37391     -84425.799      199.87765      199.95749      720.05942    
      5600  -84868.742      444.04589     -84424.696      199.86817      199.9496       720.40981    
      5700  -84865.137      443.86253     -84421.274      199.86166      199.94475      720.7602     
      5800  -84859.469      447.26537     -84412.204      199.85131      199.93664      721.1106     
      5900  -84847.235      448.9718      -84398.263      199.84321      199.9314       721.46099    
      6000  -84831.055      446.26843     -84384.787      199.83261      199.92404      721.81139    
      6100  -84827.833      451.13187     -84376.701      199.82294      199.91809      722.16178    
      6200  -84826.178      452.02608     -84374.152      199.81203      199.9111       722.51217    
      6300  -84822.395      450.56755     -84371.828      199.80065      199.90406      722.86257    
      6400  -84811.86       448.10826     -84363.752      199.78957      199.89714      723.21296    
      6500  -84798.642      448.50169     -84350.141      199.77749      199.88968      723.56335    
      6600  -84783.082      447.31487     -84335.767      199.7662       199.88235      723.91375    
      6700  -84772.761      447.08527     -84325.676      199.75369      199.87383      724.26414    
      6800  -84770.758      450.77589     -84319.982      199.74212      199.86556      724.61454    
      6900  -84762.827      447.49791     -84315.33       199.72954      199.85585      724.96493    
      7000  -84754.306      445.53463     -84308.772      199.71836      199.84712      725.31532    
      7100  -84742.585      445.07425     -84297.51       199.70528      199.83547      725.66572    
      7200  -84729.369      445.94629     -84283.423      199.6946       199.82595      726.01611    
      7300  -84722.925      452.87882     -84270.046      199.68061      199.81236      726.36651    
      7400  -84711.732      450.27536     -84261.457      199.6704       199.80246      726.7169     
      7500  -84704.763      449.02518     -84255.738      199.65554      199.78723      727.06729    
      7600  -84697.65       447.47048     -84250.179      199.64557      199.77689      727.41769    
      7700  -84688.11       447.94674     -84240.163      199.62951      199.76044      727.76808    
      7800  -84675.201      449.96458     -84225.237      199.6188       199.74955      728.11848    
      7900  -84657.154      448.02823     -84209.126      199.60225      199.73288      728.46887    
      8000  -84648.826      451.16467     -84197.661      199.58997      199.72116      728.81926    
      8100  -84643.325      451.98692     -84191.338      199.57213      199.70436      729.16966    
      8200  -84633.686      445.96673     -84187.72       199.55831      199.69207      729.52005    
      8300  -84621.695      442.52473     -84179.17       199.53926      199.67525      729.87044    
      8400  -84609.786      445.53546     -84164.251      199.52399      199.66281      730.22084    
      8500  -84600.446      454.2404      -84146.205      199.50336      199.6457       730.57123    
      8600  -84583.161      451.79095     -84131.37       199.48644      199.63295      730.92163    
      8700  -84572.933      450.84266     -84122.09       199.46462      199.6158       731.27202    
      8800  -84567.37       449.45276     -84117.918      199.44636      199.60223      731.62241    
      8900  -84555.719      443.81369     -84111.905      199.42347      199.58436      731.97281    
      9000  -84545.79       445.80725     -84099.983      199.40397      199.56972      732.3232     
      9100  -84533.32       451.51054     -84081.81       199.3807       199.5512       732.6736     
      9200  -84512.813      449.07752     -84063.736      199.36023      199.53529      733.02399    
      9300  -84504.121      453.03939     -84051.081      199.33655      199.51587      733.37438    
      9400  -84494.667      449.65507     -84045.012      199.3152       199.49833      733.72478    
      9500  -84489.824      449.68849     -84040.136      199.2913       199.4777       734.07517    
      9600  -84476.503      446.80101     -84029.702      199.26921      199.4583       734.42557    
      9700  -84459.433      447.98003     -84011.453      199.24532      199.43675      734.77596    
      9800  -84438.259      446.68055     -83991.578      199.22218      199.41588      735.12635    
      9900  -84426.228      450.09471     -83976.134      199.19809      199.39351      735.47675    
     10000  -84416.566      448.69204     -83967.874      199.17373      199.37096      735.82714    
     10100  -84409.763      447.24567     -83962.517      199.1489       199.34793      736.17753    
     10200  -84398.137      444.71938     -83953.417      199.12332      199.32436      736.52793    
     10300  -84383.62       446.03172     -83937.589      199.09775      199.3009       736.87832    
     10400  -84368.333      450.43421     -83917.899      199.0707       199.2762       737.22872    
     10500  -84350.548      450.33795     -83900.211      199.04412      199.25201      737.57911    
     10600  -84340.323      452.28185     -83888.041      199.01588      199.22652      737.9295     
     10700  -84329.815      449.53938     -83880.276      198.98808      199.20196      738.2799     
     10800  -84314.458      443.68865     -83870.77       198.95817      199.17586      738.63029    
     10900  -84305.346      448.74583     -83856.601      198.92909      199.15095      738.98069    
     11000  -84287.088      449.07473     -83838.013      198.89783      199.1243       739.33108    
     11100  -84269.823      450.51475     -83819.309      198.86769      199.09909      739.68147    
     11200  -84252.202      447.41525     -83804.787      198.83521      199.07159      740.03187    
     11300  -84241.737      446.08375     -83795.654      198.8038       199.04536      740.38226    
     11400  -84230.528      444.46092     -83786.067      198.77021      199.01659      740.73265    
     11500  -84215.048      443.46907     -83771.579      198.73779      198.98937      741.08305    
     11600  -84199.314      448.09539     -83751.219      198.70332      198.96001      741.43344    
     11700  -84181.99       450.01147     -83731.979      198.66968      198.93186      741.78384    
     11800  -84170.427      452.05638     -83718.37       198.63417      198.90148      742.13423    
     11900  -84163.12       451.96819     -83711.152      198.59984      198.87225      742.48462    
     12000  -84144.434      442.33789     -83702.096      198.56352      198.84058      742.83502    
     12100  -84134.475      451.18609     -83683.288      198.52892      198.81023      743.18541    
     12200  -84106.406      444.39472     -83662.011      198.49199      198.77736      743.53581    
     12300  -84092.677      449.28361     -83643.393      198.45643      198.7457       743.8862     
     12400  -84076.654      448.29675     -83628.357      198.41911      198.71189      744.23659    
     12500  -84065.834      445.32924     -83620.505      198.38297      198.67926      744.58699    
     12600  -84050.019      440.38417     -83609.635      198.34499      198.64473      744.93738    
     12700  -84037.74       447.75498     -83589.985      198.30791      198.61077      745.28778    
     12800  -84013.342      444.71654     -83568.625      198.26949      198.57554      745.63817    
     12900  -83998.4        447.32769     -83551.072      198.23159      198.5407       745.98856    
     13000  -83986.403      450.95946     -83535.444      198.19275      198.50519      746.33896    
     13100  -83967.549      444.21911     -83523.33       198.15376      198.46944      746.68935    
     13200  -83958.761      443.48559     -83515.275      198.11409      198.43345      747.03974    
     13300  -83934.659      435.73413     -83498.924      198.07428      198.39761      747.39014    
     13400  -83922.453      447.83951     -83474.613      198.03413      198.36192      747.74053    
     13500  -83907.397      451.1971      -83456.2        197.99322      198.32605      748.09093    
     13600  -83888.681      449.62892     -83439.052      197.95191      198.29022      748.44132    
     13700  -83870.505      448.78289     -83421.722      197.90994      198.2543       748.79171    
     13800  -83856.99       453.7623      -83403.228      197.86838      198.21913      749.14211    
     13900  -83834.693      450.30255     -83384.39       197.82577      198.1832       749.4925     
     14000  -83818.887      449.69578     -83369.191      197.78391      198.14805      749.8429     
     14100  -83809.345      450.51386     -83358.831      197.7408       198.11182      750.19329    
     14200  -83787.998      444.12577     -83343.872      197.6993       198.0767       750.54368    
     14300  -83770.413      449.23108     -83321.182      197.65683      198.04041      750.89408    
     14400  -83745.492      448.82213     -83296.67       197.61566      198.00501      751.24447    
     14500  -83727.106      446.06869     -83281.037      197.57393      197.96851      751.59487    
     14600  -83715.471      446.49736     -83268.974      197.53301      197.93241      751.94526    
     14700  -83700.021      446.06252     -83253.958      197.49205      197.89572      752.29565    
     14800  -83684.499      450.47506     -83234.024      197.45205      197.85957      752.64605    
     14900  -83658.47       452.77067     -83205.699      197.41192      197.82277      752.99644    
     15000  -83640.397      453.65891     -83186.738      197.37253      197.78636      753.34683    
     15100  -83622.244      447.8515      -83174.393      197.33326      197.7496       753.69723    
     15200  -83608.488      447.80776     -83160.68       197.29459      197.71328      754.04762    
     15300  -83594.382      450.64821     -83143.734      197.25616      197.67699      754.39802    
     15400  -83576.413      453.43896     -83122.974      197.218        197.64077      754.74841    
     15500  -83544.991      450.50375     -83094.487      197.18019      197.605        755.0988     
     15600  -83529.123      453.25501     -83075.868      197.14208      197.56913      755.4492     
     15700  -83511.267      447.42922     -83063.838      197.10513      197.53473      755.79959    
     15800  -83497.919      449.00198     -83048.918      197.06701      197.49941      756.14999    
     15900  -83478.394      446.96798     -83031.426      197.03056      197.4661       756.50038    
     16000  -83459.369      449.19163     -83010.177      196.99266      197.43174      756.85077    
     16100  -83434.759      452.26165     -82982.498      196.95704      197.40001      757.20117    
     16200  -83416.798      454.25841     -82962.54       196.91912      197.36665      757.55156    
     16300  -83400.626      452.08006     -82948.546      196.88385      197.33609      757.90195    
     16400  -83377.057      444.8129      -82932.244      196.84644      197.30378      758.25235    
     16500  -83360.069      444.99989     -82915.069      196.81144      197.27414      758.60274    
     16600  -83344.476      448.60009     -82895.876      196.77518      197.24308      758.95314    
     16700  -83324.065      449.97546     -82874.09       196.74084      197.214        759.30353    
     16800  -83301.089      452.35109     -82848.738      196.70593      197.18401      759.65392    
     16900  -83277.575      448.76304     -82828.812      196.67235      197.15503      760.00432    
     17000  -83262.722      446.74702     -82815.975      196.63889      197.12582      760.35471    
     17100  -83242.443      441.2577      -82801.185      196.60682      197.0978       760.70511    
     17200  -83223.146      443.22159     -82779.924      196.57477      197.06912      761.0555     
     17300  -83204.84       448.33237     -82756.507      196.54417      197.04138      761.40589    
     17400  -83181.613      447.95935     -82733.654      196.51393      197.01337      761.75629    
     17500  -83160.454      446.93838     -82713.515      196.48483      196.98608      762.10668    
     17600  -83147.976      453.93021     -82694.046      196.45614      196.9588       762.45708    
     17700  -83121.102      446.33986     -82674.762      196.42819      196.9318       762.80747    
     17800  -83104.985      449.89454     -82655.09       196.40077      196.90526      763.15786    
     17900  -83081.162      448.43504     -82632.727      196.37382      196.87884      763.50826    
     18000  -83054.533      448.20103     -82606.332      196.3478       196.85345      763.85865    
     18100  -83035.236      451.68597     -82583.55       196.32156      196.82796      764.20904    
     18200  -83017.352      448.64926     -82568.702      196.29632      196.80352      764.55944    
     18300  -82996.153      442.06233     -82554.091      196.27048      196.77908      764.90983    
     18400  -82980.463      448.39431     -82532.069      196.24581      196.75628      765.26023    
     18500  -82955.897      449.1478      -82506.749      196.22023      196.73308      765.61062    
     18600  -82931.425      448.59453     -82482.831      196.19609      196.71158      765.96101    
     18700  -82907.56       447.19549     -82460.365      196.1705       196.6893       766.31141    
     18800  -82892.871      451.08156     -82441.789      196.14702      196.66915      766.6618     
     18900  -82873.545      447.70271     -82425.842      196.12171      196.64773      767.0122     
     19000  -82849.596      444.77054     -82404.825      196.09866      196.62868      767.36259    
     19100  -82823.278      446.43659     -82376.841      196.07395      196.60798      767.71298    
     19200  -82804.971      454.41635     -82350.554      196.0514       196.58946      768.06338    
     19300  -82780.324      451.83968     -82328.485      196.02739      196.5692       768.41377    
     19400  -82760.112      448.90989     -82311.202      196.00585      196.55154      768.76417    
     19500  -82744.468      446.02503     -82298.443      195.98236      196.53144      769.11456    
     19600  -82717.359      442.42377     -82274.935      195.96148      196.51368      769.46495    
     19700  -82691.084      443.35568     -82247.728      195.93902      196.49384      769.81535    
     19800  -82670.825      449.22953     -82221.595      195.91909      196.47592      770.16574    
     19900  -82647.249      450.30752     -82196.942      195.8978       196.45606      770.51613    
     20000  -82621.52       447.0602      -82174.46       195.87857      196.43757      770.86653    
     20100  -82604.4        450.64038     -82153.76       195.8584       196.41775      771.21692    
     20200  -82580.537      446.70886     -82133.828      195.83996      196.39901      771.56732    
     20300  -82554.429      443.14677     -82111.283      195.82098      196.37937      771.91771    
     20400  -82533.342      449.02688     -82084.316      195.80297      196.36036      772.2681     
     20500  -82514.113      457.83128     -82056.282      195.78472      196.34104      772.6185     
     20600  -82486.516      451.88532     -82034.63       195.76722      196.32241      772.96889    
     20700  -82464.565      442.60707     -82021.958      195.74914      196.30347      773.31929    
     20800  -82446.28       446.30581     -81999.974      195.73152      196.28532      773.66968    
     20900  -82416.836      444.19988     -81972.636      195.71361      196.2674       774.02007    
     21000  -82400.467      456.07146     -81944.396      195.69548      196.24998      774.37047    
     21100  -82365.102      445.16629     -81919.936      195.67746      196.23324      774.72086    
     21200  -82346.308      448.08017     -81898.228      195.65828      196.21608      775.07125    
     21300  -82321.958      445.72333     -81876.235      195.64073      196.20083      775.42165    
     21400  -82302.743      449.61245     -81853.131      195.62094      196.1839       775.77204    
     21500  -82279.612      450.1487      -81829.463      195.60333      196.16948      776.12244    
     21600  -82251.04       446.35471     -81804.685      195.58325      196.15291      776.47283    
     21700  -82220.727      442.35034     -81778.377      195.56538      196.13891      776.82322    
     21800  -82206.225      454.83946     -81751.386      195.54545      196.12276      777.17362    
     21900  -82178.431      451.86332     -81726.568      195.52739      196.10865      777.52401    
     22000  -82158.557      449.65836     -81708.899      195.50783      196.09277      777.87441    
     22100  -82132.379      441.70678     -81690.672      195.48967      196.07818      778.2248     
     22200  -82110.707      445.97927     -81664.727      195.47065      196.06225      778.57519    
     22300  -82081.821      447.41861     -81634.403      195.45285      196.04701      778.92559    
     22400  -82060.492      452.22315     -81608.269      195.43475      196.03121      779.27598    
     22500  -82033.979      448.97127     -81585.008      195.41707      196.01495      779.62638    
     22600  -82013.363      450.84376     -81562.519      195.40016      195.99866      779.97677    
     22700  -81985.652      445.13446     -81540.518      195.38256      195.98076      780.32716    
     22800  -81964.967      446.66167     -81518.305      195.36701      195.96439      780.67756    
     22900  -81935.233      444.09825     -81491.134      195.34963      195.9456       781.02795    
     23000  -81912.777      452.7629      -81460.014      195.33458      195.92884      781.37834    
     23100  -81887.072      453.31448     -81433.758      195.31729      195.90953      781.72874    
     23200  -81861.312      448.35971     -81412.952      195.30226      195.89245      782.07913    
     23300  -81844.96       447.72763     -81397.232      195.2852       195.87346      782.42953    
     23400  -81815.015      443.25343     -81371.761      195.26991      195.85626      782.77992    
     23500  -81790.4        448.29002     -81342.11       195.2532       195.83797      783.13031    
     23600  -81760.536      447.47578     -81313.061      195.23696      195.82065      783.48071    
     23700  -81737.841      452.25213     -81285.589      195.22011      195.80332      783.8311     
     23800  -81711.531      451.32844     -81260.203      195.20305      195.78621      784.1815     
     23900  -81685.43       446.14929     -81239.28       195.18607      195.7701       784.53189    
     24000  -81662.559      442.91561     -81219.643      195.16772      195.7533       784.88228    
     24100  -81639.136      446.95433     -81192.182      195.15029      195.73817      785.23268    
     24200  -81607.416      448.32553     -81159.091      195.13117      195.72223      785.58307    
     24300  -81579.451      447.77819     -81131.673      195.11342      195.70786      785.93346    
     24400  -81557.467      450.63827     -81106.829      195.09363      195.69225      786.28386    
     24500  -81533.196      447.98714     -81085.209      195.07536      195.67819      786.63425    
     24600  -81507.65       439.97983     -81067.67       195.05541      195.6628       786.98465    
     24700  -81486.48       445.89415     -81040.586      195.03701      195.64878      787.33504    
     24800  -81458.067      450.11939     -81007.947      195.0176       195.6336       787.68543    
     24900  -81426.941      447.56567     -80979.375      194.99907      195.61907      788.03583    
     25000  -81399.029      448.57977     -80950.449      194.98021      195.60349      788.38622    
     25100  -81370.153      448.59846     -80921.555      194.96187      195.58788      788.73662    
     25200  -81340.918      447.75266     -80893.166      194.94397      195.5718       789.08701    
     25300  -81316.83       448.59877     -80868.232      194.92669      195.55537      789.4374     
     25400  -81297.187      448.31924     -80848.868      194.90949      195.53833      789.7878     
     25500  -81270.864      445.17435     -80825.689      194.8927       195.52054      790.13819    
     25600  -81239.099      444.04893     -80795.05       194.87646      195.50277      790.48859    
     25700  -81208.898      447.73504     -80761.163      194.85989      195.48413      790.83898    
     25800  -81184.72       449.68526     -80735.034      194.84434      195.46608      791.18937    
     25900  -81159.999      448.11547     -80711.884      194.82739      195.44659      791.53977    
     26000  -81130.439      442.09668     -80688.342      194.81139      195.42806      791.89016    
     26100  -81108.279      445.06936     -80663.209      194.79448      195.40887      792.24055    
     26200  -81078.248      446.21789     -80632.03       194.77779      195.39028      792.59095    
     26300  -81047.97       448.94829     -80599.022      194.76057      195.37181      792.94134    
     26400  -81022.533      450.58315     -80571.95       194.74272      195.35334      793.29174    
     26500  -81002.62       451.8315      -80550.789      194.72482      195.33542      793.64213    
     26600  -80973.524      444.01148     -80529.513      194.70604      195.3173       793.99252    
     26700  -80944.321      443.36424     -80500.957      194.68753      195.30006      794.34292    
     26800  -80920.379      449.50246     -80470.877      194.66788      195.2824       794.69331    
     26900  -80889.781      448.80048     -80440.98       194.64883      195.26602      795.04371    
     27000  -80859.478      449.24673     -80410.231      194.62811      195.24856      795.3941     
     27100  -80829.407      449.41001     -80379.997      194.60816      195.23239      795.74449    
     27200  -80799.759      453.40168     -80346.357      194.58715      195.21547      796.09489    
     27300  -80770.29       452.21446     -80318.076      194.56698      195.19933      796.44528    
     27400  -80750.535      450.51041     -80300.024      194.54566      195.18221      796.79568    
     27500  -80722.152      446.22961     -80275.922      194.52497      195.16542      797.14607    
     27600  -80699.988      451.98622     -80248.002      194.5043       195.14832      797.49646    
     27700  -80665.107      447.92787     -80217.179      194.48375      195.13071      797.84686    
     27800  -80632.46       449.99355     -80182.467      194.46365      195.113        798.19725    
     27900  -80612.235      457.69226     -80154.542      194.44356      195.09479      798.54764    
     28000  -80581.827      445.50177     -80136.325      194.42345      195.07569      798.89804    
     28100  -80553.626      442.78551     -80110.841      194.40407      195.05675      799.24843    
     28200  -80525.564      446.59015     -80078.974      194.38455      195.03674      799.59883    
     28300  -80493.823      448.57291     -80045.25       194.36561      195.01687      799.94922    
     28400  -80464.309      448.92141     -80015.387      194.34662      194.99623      800.29961    
     28500  -80436.281      446.97037     -79989.31       194.32731      194.97511      800.65001    
     28600  -80416.652      445.95705     -79970.695      194.30857      194.95413      801.0004     
     28700  -80386.719      442.43104     -79944.288      194.28943      194.93235      801.3508     
     28800  -80358.298      447.82852     -79910.469      194.27083      194.91112      801.70119    
     28900  -80327.743      449.33515     -79878.407      194.25132      194.88951      802.05158    
     29000  -80297.651      449.78472     -79847.866      194.23155      194.86776      802.40198    
     29100  -80266.935      449.30831     -79817.627      194.21175      194.84653      802.75237    
     29200  -80236.977      452.06023     -79784.917      194.19128      194.82518      803.10276    
     29300  -80203.211      451.28093     -79751.93       194.17077      194.80456      803.45316    
     29400  -80177.44       448.76042     -79728.68       194.14941      194.78364      803.80355    
     29500  -80155.656      448.7845      -79706.871      194.12806      194.76348      804.15395    
     29600  -80129.78       451.56345     -79678.217      194.10573      194.74291      804.50434    
     29700  -80095.537      448.90978     -79646.627      194.08415      194.72386      804.85473    
     29800  -80057.221      445.69963     -79611.521      194.06069      194.70344      805.20513    
     29900  -80031.175      451.94689     -79579.228      194.03886      194.68511      805.55552    
     30000  -80009.73       452.21491     -79557.515      194.01498      194.66498      805.90592    
     30100  -79985.78       450.2837      -79535.497      193.99242      194.64642      806.25631    
     30200  -79948.119      441.85678     -79506.262      193.96861      194.62668      806.6067     
     30300  -79918.893      447.49322     -79471.399      193.94645      194.60836      806.9571     
     30400  -79889.011      451.1286      -79437.883      193.92273      194.58807      807.30749    
     30500  -79862.361      453.28817     -79409.073      193.90097      194.56912      807.65789    
     30600  -79829.641      446.73834     -79382.903      193.87787      194.54829      808.00828    
     30700  -79808.753      444.36717     -79364.386      193.85655      194.52834      808.35867    
     30800  -79781.237      445.27534     -79335.962      193.83485      194.5073       808.70907    
     30900  -79747.166      446.8278      -79300.338      193.81411      194.48638      809.05946    
     31000  -79717.342      451.64212     -79265.7        193.79318      194.46452      809.40985    
     31100  -79681.372      448.87418     -79232.498      193.77277      194.44261      809.76025    
     31200  -79644.884      444.26281     -79200.621      193.75267      194.42059      810.11064    
     31300  -79616.12       447.3542      -79168.766      193.73249      194.39793      810.46104    
     31400  -79585.98       449.87814     -79136.102      193.71308      194.37589      810.81143    
     31500  -79559.637      450.1416      -79109.495      193.6925       194.35249      811.16182    
     31600  -79535.274      448.68795     -79086.586      193.67292      194.33018      811.51222    
     31700  -79501.444      443.22631     -79058.217      193.65244      194.30698      811.86261    
     31800  -79472.676      449.56485     -79023.111      193.6326       194.28504      812.21301    
     31900  -79439.307      452.53529     -78986.771      193.61139      194.26237      812.5634     
     32000  -79409.144      451.13213     -78958.012      193.59041      194.24039      812.91379    
     32100  -79380.219      448.77854     -78931.44       193.56849      194.2184       813.26419    
     32200  -79347.129      441.93665     -78905.193      193.54643      194.19695      813.61458    
     32300  -79323.134      447.16527     -78875.968      193.52393      194.17612      813.96498    
     32400  -79289.378      449.69198     -78839.686      193.50098      194.15526      814.31537    
     32500  -79257.577      453.60034     -78803.976      193.47759      194.13496      814.66576    
     32600  -79222.744      447.87657     -78774.868      193.45376      194.11469      815.01616    
     32700  -79198.306      446.64782     -78751.658      193.43029      194.09523      815.36655    
     32800  -79176.961      451.83209     -78725.129      193.40583      194.07535      815.71694    
     32900  -79134.808      441.69259     -78693.115      193.38204      194.05628      816.06734    
     33000  -79105.159      445.47325     -78659.686      193.35713      194.03611      816.41773    
     33100  -79076.4        450.04642     -78626.354      193.33326      194.01709      816.76813    
     33200  -79045.505      451.51043     -78593.995      193.30871      193.99649      817.11852    
     33300  -79013.245      448.92558     -78564.32       193.28579      193.97742      817.46891    
     33400  -78985.967      443.97566     -78541.991      193.26161      193.95589      817.81931    
     33500  -78955.993      442.05931     -78513.933      193.2392       193.93569      818.1697     
     33600  -78926.521      450.39873     -78476.122      193.21629      193.9138       818.5201     
     33700  -78886.514      446.22052     -78440.294      193.19448      193.89202      818.87049    
     33800  -78859.339      451.75809     -78407.581      193.17306      193.87012      819.22088    
     33900  -78823.688      446.72099     -78376.967      193.15154      193.84718      819.57128    
     34000  -78796.757      446.24115     -78350.516      193.13079      193.82423      819.92167    
     34100  -78770.41       444.97482     -78325.436      193.10958      193.80027      820.27206    
     34200  -78737.755      446.81073     -78290.944      193.08967      193.77719      820.62246    
     34300  -78700.141      447.45353     -78252.688      193.06857      193.75276      820.97285    
     34400  -78670.173      449.55241     -78220.621      193.04882      193.72955      821.32325    
     34500  -78636.954      446.45057     -78190.504      193.02748      193.705        821.67364    
     34600  -78608.403      447.04811     -78161.355      193.00686      193.68153      822.02403    
     34700  -78580.159      448.24629     -78131.913      192.98559      193.65774      822.37443    
     34800  -78546.63       447.08623     -78099.544      192.96461      193.63477      822.72482    
     34900  -78511.197      448.2142      -78062.983      192.94276      193.6116       823.07522    
     35000  -78481.865      453.62094     -78028.244      192.92087      193.58913      823.42561    
     35100  -78448.649      449.66733     -77998.982      192.89824      193.56691      823.776      
     35200  -78422.371      444.7473      -77977.624      192.87495      193.54498      824.1264     
     35300  -78394.334      447.16699     -77947.167      192.85206      193.52437      824.47679    
     35400  -78359.361      448.4529      -77910.908      192.82795      193.50325      824.82719    
     35500  -78324.79       448.9507      -77875.839      192.80463      193.48334      825.17758    
     35600  -78297.516      454.00424     -77843.512      192.78016      193.4629       825.52797    
     35700  -78259.364      446.50625     -77812.858      192.75632      193.44324      825.87837    
     35800  -78225.329      441.35193     -77783.977      192.73224      193.42363      826.22876    
     35900  -78203.333      445.46054     -77757.872      192.70864      193.40417      826.57915    
     36000  -78172.045      446.90257     -77725.142      192.68451      193.38411      826.92955    
     36100  -78135.783      449.88924     -77685.894      192.66135      193.36474      827.27994    
     36200  -78104.147      453.17011     -77650.977      192.63779      193.34464      827.63034    
     36300  -78065.988      446.16009     -77619.828      192.6156       193.32492      827.98073    
     36400  -78040.58       449.7154      -77590.864      192.59269      193.30421      828.33112    
     36500  -78009.725      443.46118     -77566.264      192.57164      193.28445      828.68152    
     36600  -77977.798      442.06983     -77535.728      192.54963      193.26295      829.03191    
     36700  -77944.643      449.24402     -77495.398      192.52964      193.24261      829.38231    
     36800  -77908.185      447.68402     -77460.501      192.50877      193.22088      829.7327     
     36900  -77877.182      449.44719     -77427.735      192.48937      193.19956      830.08309    
     37000  -77842.909      447.92365     -77394.986      192.46987      193.1777       830.43349    
     37100  -77811.673      449.83883     -77361.834      192.45086      193.15568      830.78388    
     37200  -77779.844      451.55907     -77328.285      192.43195      193.13367      831.13428    
     37300  -77744.984      447.84478     -77297.139      192.41306      193.11131      831.48467    
     37400  -77713.85       445.71397     -77268.136      192.39449      193.08933      831.83506    
     37500  -77685.666      446.73752     -77238.928      192.3756       193.06724      832.18546    
     37600  -77646.286      442.35225     -77203.934      192.35672      193.04547      832.53585    
     37700  -77615.746      451.55987     -77164.187      192.33762      193.02406      832.88624    
     37800  -77581.973      450.80951     -77131.164      192.31793      193.00278      833.23664    
     37900  -77554.035      450.97726     -77103.058      192.29856      192.98214      833.58703    
     38000  -77522.369      445.09385     -77077.275      192.27818      192.96167      833.93743    
     38100  -77491.067      441.24909     -77049.818      192.25808      192.94235      834.28782    
     38200  -77466.884      444.922       -77021.962      192.23698      192.92287      834.63821    
     38300  -77424.782      443.25823     -76981.524      192.21577      192.90397      834.98861    
     38400  -77385.735      444.1395      -76941.596      192.1946       192.88581      835.339      
     38500  -77352.519      448.06742     -76904.452      192.17252      192.86754      835.6894     
     38600  -77320.118      449.73227     -76870.385      192.15101      192.85054      836.03979    
     38700  -77293.347      451.53689     -76841.81       192.12826      192.83265      836.39018    
     38800  -77258.102      441.78215     -76816.32       192.1066       192.81582      836.74058    
     38900  -77227.332      444.0628      -76783.27       192.0843       192.79813      837.09097    
     39000  -77195.118      449.84788     -76745.27       192.06318      192.78146      837.44136    
     39100  -77158.514      447.24644     -76711.267      192.04186      192.76391      837.79176    
     39200  -77130.456      451.80439     -76678.651      192.02061      192.74597      838.14215    
     39300  -77094.155      446.93576     -76647.219      192.00056      192.7285       838.49255    
     39400  -77058.195      444.28308     -76613.912      191.97962      192.70928      838.84294    
     39500  -77028.126      452.77015     -76575.355      191.96091      192.69159      839.19333    
     39600  -76989.153      450.48802     -76538.665      191.9411       192.67193      839.54373    
     39700  -76956.256      447.41968     -76508.837      191.92272      192.65302      839.89412    
     39800  -76927.724      442.63407     -76485.09       191.90396      192.63308      840.24452    
     39900  -76895.879      443.53221     -76452.347      191.88636      192.61338      840.59491    
     40000  -76859.378      444.0031      -76415.375      191.86824      192.59278      840.9453     
     40100  -76826.639      448.01134     -76378.628      191.85092      192.57238      841.2957     
     40200  -76793.762      448.93296     -76344.829      191.83396      192.55186      841.64609    
     40300  -76757.039      443.79942     -76313.24       191.81618      192.53032      841.99649    
     40400  -76738.327      449.90182     -76288.425      191.8          192.51003      842.34688    
     40500  -76699.277      440.49457     -76258.783      191.78227      192.48841      842.69727    
     40600  -76669.776      450.79338     -76218.982      191.76584      192.46824      843.04767    
     40700  -76628.31       447.50064     -76180.809      191.74808      192.44737      843.39806    
     40800  -76595.919      449.37263     -76146.546      191.73086      192.42777      843.74845    
     40900  -76559.501      445.84509     -76113.656      191.71255      192.40769      844.09885    
     41000  -76528.462      444.10764     -76084.354      191.6947       192.38893      844.44924    
     41100  -76498.747      442.18404     -76056.563      191.67564      192.37023      844.79964    
     41200  -76468.111      445.82725     -76022.284      191.65699      192.35253      845.15003    
     41300  -76428.353      448.39312     -75979.96       191.63743      192.33501      845.50042    
     41400  -76393.23       447.71669     -75945.513      191.61815      192.31834      845.85082    
     41500  -76366.058      451.80248     -75914.256      191.5979       192.30161      846.20121    
     41600  -76325.79       441.27738     -75884.513      191.57782      192.28568      846.55161    
     41700  -76306.617      450.29456     -75856.322      191.55785      192.2702       846.902      
     41800  -76262.958      438.99364     -75823.965      191.53743      192.25456      847.25239    
     41900  -76231.721      450.22093     -75781.5        191.51795      192.23958      847.60279    
     42000  -76192.298      447.76967     -75744.529      191.49791      192.22385      847.95318    
     42100  -76161.531      449.07234     -75712.459      191.47886      192.20863      848.30358    
     42200  -76133.889      450.07683     -75683.812      191.4596       192.19252      848.65397    
     42300  -76101.595      445.61147     -75655.984      191.44172      192.17716      849.00436    
     42400  -76066.144      443.25469     -75622.89       191.42318      192.16046      849.35476    
     42500  -76022.266      443.17743     -75579.088      191.40635      192.14454      849.70515    
     42600  -75993.801      452.04256     -75541.758      191.38884      192.12737      850.05554    
     42700  -75957.51       448.56646     -75508.943      191.37259      192.11046      850.40594    
     42800  -75925.707      445.99141     -75479.715      191.35674      192.0932       850.75633    
     42900  -75894.427      443.49783     -75450.929      191.34099      192.07531      851.10673    
     43000  -75860.072      444.1342      -75415.938      191.32601      192.05753      851.45712    
     43100  -75824.669      452.25088     -75372.418      191.31097      192.03898      851.80751    
     43200  -75789.617      452.38822     -75337.228      191.29628      192.02054      852.15791    
     43300  -75751.46       445.0866      -75306.373      191.28167      192.0019       852.5083     
     43400  -75725.44       446.58027     -75278.86       191.26709      191.98351      852.8587     
     43500  -75689.331      441.39481     -75247.936      191.25247      191.96507      853.20909    
     43600  -75655.281      447.4566      -75207.825      191.23794      191.94708      853.55948    
     43700  -75614.745      448.44415     -75166.301      191.2227       191.92888      853.90988    
     43800  -75587.076      452.37827     -75134.697      191.20789      191.91163      854.26027    
     43900  -75552.759      446.08621     -75106.673      191.19202      191.89414      854.61066    
     44000  -75521.114      445.58412     -75075.529      191.1765       191.87776      854.96106    
     44100  -75483.372      443.83355     -75039.539      191.16007      191.86139      855.31145    
     44200  -75449.903      454.53959     -74995.364      191.14312      191.84541      855.66185    
     44300  -75411.449      450.53116     -74960.918      191.12634      191.83046      856.01224    
     44400  -75385.084      452.61604     -74932.468      191.10833      191.81532      856.36263    
     44500  -75349.648      447.49072     -74902.157      191.09085      191.80121      856.71303    
     44600  -75316.415      447.95802     -74868.457      191.07271      191.78716      857.06342    
     44700  -75282.149      449.08389     -74833.065      191.05453      191.77341      857.41382    
     44800  -75242.486      449.09564     -74793.39       191.03617      191.75961      857.76421    
     44900  -75205.395      449.80138     -74755.593      191.01823      191.74609      858.1146     
     45000  -75180.503      453.14806     -74727.355      191.00009      191.73236      858.465      
     45100  -75148.545      450.07483     -74698.471      190.98237      191.71878      858.81539    
     45200  -75111.548      447.29194     -74664.256      190.96472      191.70504      859.16579    
     45300  -75079.367      452.31319     -74627.054      190.94687      191.69043      859.51618    
     45400  -75037.798      452.67048     -74585.128      190.93015      191.67622      859.86657    
     45500  -74999.077      452.05734     -74547.02       190.91276      191.66076      860.21697    
     45600  -74972.65       449.96714     -74522.683      190.89689      191.64582      860.56736    
     45700  -74943.172      451.72044     -74491.452      190.88065      191.62954      860.91775    
     45800  -74904.999      447.81405     -74457.185      190.86531      191.61333      861.26815    
     45900  -74872.508      451.64211     -74420.866      190.85015      191.59626      861.61854    
     46000  -74828.955      445.92812     -74383.027      190.83535      191.57868      861.96894    
     46100  -74795.483      450.89287     -74344.59       190.82129      191.56104      862.31933    
     46200  -74761.095      447.16736     -74313.928      190.80726      191.54288      862.66972    
     46300  -74731.291      443.89448     -74287.397      190.7935       191.52472      863.02012    
     46400  -74698.748      444.8793      -74253.869      190.77957      191.50615      863.37051    
     46500  -74668.487      451.26705     -74217.22       190.76541      191.48745      863.72091    
     46600  -74622.965      446.75048     -74176.214      190.75184      191.46949      864.0713     
     46700  -74587.656      451.42564     -74136.231      190.73735      191.45114      864.42169    
     46800  -74560.774      453.44296     -74107.331      190.72387      191.43423      864.77209    
     46900  -74530.623      452.6588      -74077.964      190.70829      191.41598      865.12248    
     47000  -74492.125      447.32274     -74044.802      190.69417      191.39993      865.47287    
     47100  -74461.583      450.36252     -74011.22       190.67841      191.38317      865.82327    
     47200  -74426.344      448.75362     -73977.591      190.66297      191.36746      866.17366    
     47300  -74383.846      442.24277     -73941.603      190.64741      191.35223      866.52406    
     47400  -74351.205      448.74824     -73902.457      190.63062      191.33699      866.87445    
     47500  -74312.987      448.10105     -73864.886      190.61439      191.32291      867.22484    
     47600  -74287.44       452.72321     -73834.716      190.59729      191.30867      867.57524    
     47700  -74252.27       445.47225     -73806.798      190.58037      191.29521      867.92563    
     47800  -74216.444      445.20178     -73771.243      190.56263      191.28163      868.27603    
     47900  -74179.905      447.36235     -73732.542      190.54573      191.26907      868.62642    
     48000  -74147.266      454.12758     -73693.139      190.52806      191.25602      868.97681    
     48100  -74103.218      452.28778     -73650.93       190.51055      191.2431       869.32721    
     48200  -74072.873      455.55969     -73617.313      190.49349      191.23039      869.6776     
     48300  -74039.693      448.44391     -73591.249      190.47633      191.21722      870.028      
     48400  -74005.775      445.89558     -73559.879      190.45997      191.20434      870.37839    
     48500  -73972.892      445.55376     -73527.338      190.4432       191.19029      870.72878    
     48600  -73939.802      447.70132     -73492.101      190.4277       191.17664      871.07918    
     48700  -73904.336      451.95126     -73452.384      190.41136      191.16151      871.42957    
     48800  -73862.592      451.13037     -73411.462      190.39678      191.14727      871.77996    
     48900  -73827.441      447.84843     -73379.593      190.38125      191.13124      872.13036    
     49000  -73801.975      449.5757      -73352.399      190.36729      191.11572      872.48075    
     49100  -73761.071      443.62747     -73317.443      190.3533       191.09974      872.83115    
     49200  -73729.858      450.06696     -73279.791      190.33919      191.08271      873.18154    
     49300  -73692.165      451.56721     -73240.598      190.32642      191.06638      873.53193    
     49400  -73659.688      454.08517     -73205.603      190.31273      191.0488       873.88233    
     49500  -73620.225      442.45995     -73177.766      190.30031      191.03207      874.23272    
     49600  -73590.336      444.41833     -73145.918      190.28687      191.01412      874.58312    
     49700  -73558.972      450.28014     -73108.692      190.27413      190.99693      874.93351    
     49800  -73520.068      453.53876     -73066.529      190.26084      190.97947      875.2839     
     49900  -73480.093      454.03225     -73026.06       190.24786      190.96264      875.6343     
     50000  -73447.904      451.87032     -72996.034      190.2342       190.94591      875.98469    
     50100  -73415.779      451.57408     -72964.205      190.2199       190.92925      876.33509    
     50200  -73382.376      452.00233     -72930.373      190.2058       190.91367      876.68548    
     50300  -73343.037      445.43472     -72897.602      190.19039      190.89759      877.03587    
     50400  -73308.997      444.07176     -72864.926      190.17626      190.88354      877.38627    
     50500  -73276.756      445.15619     -72831.6        190.15937      190.86787      877.73666    
     50600  -73242.285      445.704       -72796.581      190.14417      190.85452      878.08705    
     50700  -73203.782      449.15474     -72754.627      190.12689      190.84006      878.43745    
     50800  -73163.975      450.48076     -72713.495      190.10977      190.82669      878.78784    
     50900  -73131.671      451.38181     -72680.289      190.09307      190.814        879.13824    
     51000  -73101.401      450.43624     -72650.965      190.07456      190.80011      879.48863    
     51100  -73064.781      448.34321     -72616.438      190.05755      190.78808      879.83902    
     51200  -73027.466      447.31101     -72580.155      190.03892      190.77437      880.18942    
     51300  -72989.826      447.02093     -72542.805      190.02154      190.76186      880.53981    
     51400  -72957.811      452.60173     -72505.209      190.00293      190.74789      880.89021    
     51500  -72924.02       452.75009     -72471.27       189.98574      190.73496      881.2406     
     51600  -72888.952      447.16035     -72441.791      189.96787      190.72078      881.59099    
     51700  -72854.554      447.16567     -72407.388      189.95034      190.70622      881.94139    
     51800  -72816.355      447.14677     -72369.209      189.93349      190.69155      882.29178    
     51900  -72782.293      456.60811     -72325.685      189.91665      190.67611      882.64217    
     52000  -72742.955      456.22977     -72286.726      189.90045      190.66012      882.99257    
     52100  -72711.565      452.21074     -72259.354      189.88523      190.64427      883.34296    
     52200  -72676.547      449.59148     -72226.956      189.86983      190.62682      883.69336    
     52300  -72640.793      446.94541     -72193.848      189.85546      190.6096       884.04375    
     52400  -72608.077      448.34023     -72159.737      189.84176      190.59199      884.39414    
     52500  -72572.585      447.41012     -72125.175      189.82795      190.57345      884.74454    
     52600  -72537.229      446.87757     -72090.352      189.81421      190.55475      885.09493    
     52700  -72500.999      444.53391     -72056.466      189.80138      190.53658      885.44533    
     52800  -72463.54       444.78554     -72018.755      189.78791      190.51756      885.79572    
     52900  -72427.394      450.93097     -71976.463      189.77468      190.49907      886.14611    
     53000  -72385.691      449.70371     -71935.987      189.76141      190.48094      886.49651    
     53100  -72358.611      452.2971      -71906.314      189.74772      190.46275      886.8469     
     53200  -72327.675      452.34148     -71875.334      189.7338       190.44511      887.1973     
     53300  -72285.653      447.02304     -71838.63       189.7199       190.42802      887.54769    
     53400  -72252.241      449.11362     -71803.128      189.70509      190.41095      887.89808    
     53500  -72218.288      448.12639     -71770.162      189.69048      190.39471      888.24848    
     53600  -72183.64       444.9318      -71738.708      189.67534      190.3789       888.59887    
     53700  -72145.71       443.72809     -71701.982      189.65928      190.36308      888.94926    
     53800  -72106.958      451.89122     -71655.067      189.6436       190.34868      889.29966    
     53900  -72069.921      455.09827     -71614.822      189.62624      190.33347      889.65005    
     54000  -72034.637      451.65537     -71582.982      189.60971      190.32007      890.00045    
     54100  -71998.174      447.43429     -71550.74       189.59164      190.3059       890.35084    
     54200  -71962.958      446.95181     -71516.006      189.57404      190.29289      890.70123    
     54300  -71933.094      452.34207     -71480.752      189.55579      190.27952      891.05163    
     54400  -71893.766      444.53032     -71449.236      189.53745      190.26632      891.40202    
     54500  -71864.858      445.70968     -71419.149      189.51918      190.25359      891.75242    
     54600  -71825.232      444.46968     -71380.762      189.50052      190.24054      892.10281    
     54700  -71786.742      448.52743     -71338.214      189.48191      190.22703      892.4532     
     54800  -71749.758      450.32302     -71299.435      189.46376      190.21354      892.8036     
     54900  -71711.867      447.59233     -71264.274      189.44596      190.19984      893.15399    
     55000  -71679.545      447.35868     -71232.186      189.42795      190.18507      893.50439    
     55100  -71640.942      443.77029     -71197.171      189.41091      190.17031      893.85478    
     55200  -71604.673      445.25713     -71159.415      189.3945       190.15542      894.20517    
     55300  -71569.329      451.24443     -71118.085      189.37726      190.13857      894.55557    
     55400  -71525.901      447.48246     -71078.418      189.36244      190.12334      894.90596    
     55500  -71497.945      450.08836     -71047.857      189.34667      190.10583      895.25635    
     55600  -71460.026      444.45672     -71015.569      189.33198      190.0886       895.60675    
     55700  -71428.333      448.55867     -70979.774      189.31718      190.07054      895.95714    
     55800  -71394.776      449.95031     -70944.826      189.30405      190.05344      896.30754    
     55900  -71356.359      444.62632     -70911.733      189.2891       190.03389      896.65793    
     56000  -71323.113      443.8502      -70879.262      189.27598      190.01604      897.00832    
     56100  -71286.737      445.58278     -70841.154      189.26209      189.99701      897.35872    
     56200  -71245.912      451.78123     -70794.131      189.24849      189.97844      897.70911    
     56300  -71210.482      457.43262     -70753.05       189.23399      189.95927      898.05951    
     56400  -71170.48       449.15263     -70721.327      189.22012      189.94084      898.4099     
     56500  -71141.272      453.29435     -70687.977      189.20596      189.92263      898.76029    
     56600  -71102.867      450.75919     -70652.108      189.19066      189.90386      899.11069    
     56700  -71064.882      448.71519     -70616.167      189.17657      189.88718      899.46108    
     56800  -71026.302      442.80448     -70583.498      189.15954      189.86833      899.81147    
     56900  -70994.325      446.34591     -70547.979      189.14457      189.85216      900.16187    
     57000  -70954.417      446.14689     -70508.27       189.12712      189.83427      900.51226    
     57100  -70917.392      449.50544     -70467.887      189.11054      189.8181       900.86266    
     57200  -70881.575      450.46931     -70431.106      189.09306      189.8019       901.21305    
     57300  -70845.959      446.60228     -70399.357      189.07445      189.7854       901.56344    
     57400  -70806.813      443.14812     -70363.665      189.05703      189.77063      901.91384    
     57500  -70771.656      446.8793      -70324.776      189.03713      189.75417      902.26423    
     57600  -70734.092      448.26893     -70285.823      189.01935      189.74009      902.61463    
     57700  -70704.884      452.62329     -70252.261      188.9989       189.72375      902.96502    
     57800  -70667.64       448.86157     -70218.779      188.98094      189.71032      903.31541    
     57900  -70626.751      446.90867     -70179.842      188.96076      189.69483      903.66581    
     58000  -70592.723      451.86293     -70140.86       188.94121      189.67988      904.0162     
     58100  -70557.094      452.02141     -70105.072      188.92242      189.66519      904.3666     
     58200  -70520.742      448.61674     -70072.125      188.90295      189.6494       904.71699    
     58300  -70481.555      447.8819      -70033.673      188.88518      189.6348       905.06738    
     58400  -70442.734      448.8783      -69993.855      188.86616      189.61818      905.41778    
     58500  -70403.426      447.83682     -69955.589      188.84925      189.60289      905.76817    
     58600  -70370.288      450.18313     -69920.105      188.83054      189.58526      906.11856    
     58700  -70334.067      451.27667     -69882.791      188.81469      189.5699       906.46896    
     58800  -70292.09       447.19947     -69844.891      188.79723      189.55168      906.81935    
     58900  -70258.484      448.68576     -69809.798      188.78197      189.53513      907.16975    
     59000  -70221.652      446.7015      -69774.951      188.76584      189.51679      907.52014    
     59100  -70181.345      443.46753     -69737.878      188.7509       189.49908      907.87053    
     59200  -70148.134      448.41263     -69699.722      188.73569      189.48038      908.22093    
     59300  -70110.91       444.15177     -69666.758      188.72089      189.46189      908.57132    
     59400  -70074.948      445.88643     -69629.062      188.70631      189.44297      908.92172    
     59500  -70037.609      451.77772     -69585.831      188.69196      189.4241       909.27211    
     59600  -69996.088      454.34049     -69541.748      188.67683      189.40428      909.6225     
     59700  -69954.044      455.18426     -69498.86       188.66302      189.38607      909.9729     
     59800  -69922.797      455.99545     -69466.801      188.64752      189.36646      910.32329    
     59900  -69882.146      449.36622     -69432.78       188.63331      189.3485       910.67369    
     60000  -69842.958      446.45664     -69396.502      188.61729      189.32948      911.02408    
     60100  -69809.267      449.2067      -69360.061      188.60236      189.3121       911.37447    
     60200  -69768.958      445.82971     -69323.128      188.58573      189.29356      911.72487    
     60300  -69735.28       451.8925      -69283.387      188.57026      189.27681      912.07526    
     60400  -69697.146      447.77094     -69249.376      188.55287      189.25898      912.42565    
     60500  -69655.136      442.09121     -69213.045      188.53634      189.24273      912.77605    
     60600  -69617.783      447.18391     -69170.599      188.51842      189.22585      913.12644    
     60700  -69576.458      447.85754     -69128.6        188.50065      189.20991      913.47684    
     60800  -69541.561      447.87924     -69093.682      188.48263      189.19445      913.82723    
     60900  -69505.521      448.14088     -69057.38       188.46419      189.17914      914.17762    
     61000  -69463.693      447.16298     -69016.53       188.44563      189.16412      914.52802    
     61100  -69424.753      447.37469     -68977.378      188.42612      189.1482       914.87841    
     61200  -69387.644      445.37386     -68942.27       188.40839      189.13439      915.22881    
     61300  -69351.374      447.84637     -68903.528      188.38848      189.11851      915.5792     
     61400  -69311.116      450.72125     -68860.395      188.37046      189.10468      915.92959    
     61500  -69272.009      451.85944     -68820.149      188.35056      189.08872      916.27999    
     61600  -69231.724      449.08393     -68782.641      188.33259      189.07444      916.63038    
     61700  -69191.252      448.39293     -68742.859      188.31364      189.05874      916.98077    
     61800  -69154.41       452.00199     -68702.408      188.29579      189.04373      917.33117    
     61900  -69112.811      448.50174     -68664.309      188.27698      189.02746      917.68156    
     62000  -69077.308      451.96614     -68625.342      188.25966      189.01187      918.03196    
     62100  -69036.352      450.60333     -68585.749      188.24175      188.99522      918.38235    
     62200  -68994.996      449.37787     -68545.618      188.22422      188.9783       918.73274    
     62300  -68957.135      449.83655     -68507.298      188.20742      188.96129      919.08314    
     62400  -68915.449      449.08204     -68466.367      188.19048      188.94344      919.43353    
     62500  -68875.574      450.53474     -68425.039      188.17466      188.9258       919.78393    
     62600  -68837.752      451.93143     -68385.821      188.15817      188.90697      920.13432    
     62700  -68795.698      450.69898     -68344.999      188.14304      188.88873      920.48471    
     62800  -68760.26       454.91676     -68305.343      188.12745      188.86986      920.83511    
     62900  -68715.807      449.89286     -68265.914      188.11218      188.85084      921.1855     
     63000  -68673.941      448.20275     -68225.738      188.0971       188.83172      921.5359     
     63100  -68635.433      450.17596     -68185.257      188.0822       188.81272      921.88629    
     63200  -68594.44       448.68317     -68145.757      188.06718      188.79359      922.23668    
     63300  -68555.732      450.80763     -68104.925      188.05202      188.77445      922.58708    
     63400  -68513.229      449.77458     -68063.455      188.03709      188.75596      922.93747    
     63500  -68474.396      452.00153     -68022.394      188.02142      188.73698      923.28786    
     63600  -68431.446      451.45388     -67979.992      188.0063       188.71891      923.63826    
     63700  -68386.163      447.62638     -67938.537      187.99085      188.70077      923.98865    
     63800  -68348.398      450.36634     -67898.032      187.97539      188.68346      924.33905    
     63900  -68306.023      449.00539     -67857.018      187.95937      188.66629      924.68944    
     64000  -68264.692      449.36797     -67815.324      187.94313      188.64967      925.03983    
     64100  -68219.523      446.17289     -67773.35       187.92668      188.63339      925.39023    
     64200  -68180.398      448.95997     -67731.438      187.91         188.61759      925.74062    
     64300  -68137.212      449.52589     -67687.686      187.89312      188.60217      926.09102    
     64400  -68090.23       444.7724      -67645.457      187.87609      188.58718      926.44141    
     64500  -68054.276      451.99984     -67602.276      187.85829      188.57203      926.7918     
     64600  -68014.208      454.09406     -67560.114      187.84113      188.55789      927.1422     
     64700  -67968.686      450.09568     -67518.59       187.82319      188.54318      927.49259    
     64800  -67928.323      451.50809     -67476.814      187.80593      188.52936      927.84298    
     64900  -67885.665      452.17677     -67433.488      187.7878       188.51473      928.19338    
     65000  -67839.041      448.82901     -67390.212      187.77075      188.50129      928.54377    
     65100  -67797.74       451.84701     -67345.893      187.7527       188.48681      928.89417    
     65200  -67753.539      451.7557      -67301.783      187.73565      188.47316      929.24456    
     65300  -67710.12       453.2064      -67256.914      187.71834      188.45888      929.59495    
     65400  -67665.253      452.21384     -67213.039      187.70124      188.44419      929.94535    
     65500  -67616.899      447.64746     -67169.252      187.68474      188.42956      930.29574    
     65600  -67577.246      452.18277     -67125.063      187.66861      188.41482      930.64614    
     65700  -67534.607      454.41646     -67080.19       187.65242      188.39931      930.99653    
     65800  -67485.127      449.68807     -67035.439      187.63738      188.38454      931.34692    
     65900  -67443.257      452.01255     -66991.245      187.62181      188.36864      931.69732    
     66000  -67395.925      449.95354     -66945.971      187.60704      188.35326      932.04771    
     66100  -67351.793      450.73955     -66901.053      187.59225      188.33735      932.39811    
     66200  -67309.983      453.99793     -66855.985      187.57823      188.32172      932.7485     
     66300  -67261.926      451.23352     -66810.692      187.56386      188.30531      933.09889    
     66400  -67212.129      447.54044     -66764.589      187.55032      188.2894       933.44929    
     66500  -67169.708      451.42858     -66718.279      187.53669      188.27302      933.79968    
     66600  -67123.645      451.79788     -66671.847      187.5235       188.25684      934.15007    
     66700  -67076.442      451.27593     -66625.166      187.50994      188.24003      934.50047    
     66800  -67030.95       453.55491     -66577.395      187.49723      188.22421      934.85086    
     66900  -66980.274      450.17621     -66530.098      187.48376      188.20782      935.20126    
     67000  -66936.178      453.01093     -66483.167      187.47081      188.19208      935.55165    
     67100  -66888.181      450.8534      -66437.328      187.45753      188.17635      935.90204    
     67200  -66845.311      454.96156     -66390.349      187.44375      188.16054      936.25244    
     67300  -66791.074      447.2269      -66343.847      187.4306       188.14571      936.60283    
     67400  -66751.858      456.23193     -66295.626      187.41624      188.13002      936.95323    
     67500  -66698.592      450.686       -66247.906      187.40308      188.11576      937.30362    
     67600  -66651.299      451.48123     -66199.818      187.38868      188.10085      937.65401    
     67700  -66603.156      453.01327     -66150.143      187.37457      188.08652      938.00441    
     67800  -66554.545      451.41111     -66103.134      187.36048      188.07272      938.3548     
     67900  -66508.683      455.35748     -66053.325      187.34584      188.05869      938.7052     
     68000  -66459.102      454.88654     -66004.215      187.33178      188.04565      939.05559    
     68100  -66408.764      455.60196     -65953.162      187.31635      188.03161      939.40598    
     68200  -66360.423      456.79901     -65903.624      187.30279      188.01966      939.75638    
     68300  -66309.464      455.65548     -65853.808      187.28686      188.00579      940.10677    
     68400  -66263.477      457.61972     -65805.857      187.27354      187.99461      940.45716    
     68500  -66210.844      455.14036     -65755.704      187.25751      187.98092      940.80756    
     68600  -66160.722      453.77999     -65706.942      187.24425      187.97004      941.15795    
     68700  -66111.372      455.01798     -65656.354      187.22872      187.95688      941.50835    
     68800  -66061.191      457.27236     -65603.918      187.21524      187.9458       941.85874    
     68900  -66007.45       455.19237     -65552.258      187.20055      187.93335      942.20913    
     69000  -65960.931      460.38953     -65500.541      187.18698      187.92185      942.55953    
     69100  -65906.363      455.45036     -65450.913      187.17322      187.90981      942.90992    
     69200  -65858.496      458.29589     -65400.2        187.15973      187.89773      943.26032    
     69300  -65803.162      454.02224     -65349.14       187.14698      187.88609      943.61071    
     69400  -65751.578      454.67073     -65296.907      187.13366      187.87348      943.9611     
     69500  -65705.178      459.06135     -65246.116      187.12175      187.86193      944.3115     
     69600  -65648.96       454.53319     -65194.427      187.10853      187.84849      944.66189    
     69700  -65598.853      459.40861     -65139.444      187.09769      187.83732      945.01228    
     69800  -65543.543      457.67569     -65085.867      187.08469      187.82356      945.36268    
     69900  -65485.339      453.60634     -65031.733      187.07428      187.81209      945.71307    
     70000  -65437.476      459.88178     -64977.594      187.06199      187.79842      946.06347    
     70100  -65384.077      459.78431     -64924.293      187.05194      187.78688      946.41386    
     70200  -65325.405      455.83056     -64869.574      187.03979      187.77295      946.76425    
     70300  -65266.901      450.52039     -64816.381      187.03001      187.76152      947.11465    
     70400  -65218.254      456.74179     -64761.512      187.01817      187.74783      947.46504    
     70500  -65165.671      459.12924     -64706.542      187.00827      187.73617      947.81544    
     70600  -65113.072      459.68749     -64653.384      186.99687      187.72284      948.16583    
     70700  -65058.255      460.75688     -64597.498      186.98697      187.71105      948.51622    
     70800  -64997.868      456.08813     -64541.78       186.97581      187.69814      948.86662    
     70900  -64947.421      462.20201     -64485.219      186.96587      187.6866       949.21701    
     71000  -64889.612      461.36234     -64428.25       186.95474      187.6739       949.56741    
     71100  -64833.244      458.56757     -64374.677      186.9448       187.66253      949.9178     
     71200  -64773.984      455.36772     -64318.617      186.93367      187.65023      950.26819    
     71300  -64727.437      466.1387      -64261.298      186.92353      187.63932      950.61859    
     71400  -64667.08       461.75435     -64205.326      186.91229      187.62756      950.96898    
     71500  -64611.543      463.61215     -64147.931      186.90152      187.61652      951.31937    
     71600  -64555.556      464.28243     -64091.274      186.89074      187.60565      951.66977    
     71700  -64494.888      461.69677     -64033.191      186.87923      187.59433      952.02016    
     71800  -64439.71       465.64991     -63974.06       186.869        187.58459      952.37056    
     71900  -64381.586      467.6439      -63913.942      186.85651      187.57281      952.72095    
     72000  -64325.783      468.75048     -63857.032      186.84667      187.56389      953.07134    
     72100  -64261.523      464.70609     -63796.817      186.83381      187.55211      953.42174    
     72200  -64205.301      467.44072     -63737.86       186.8241       187.54341      953.77213    
     72300  -64143.98       467.49956     -63676.48       186.81119      187.53166      954.12253    
     72400  -64082.61       464.80955     -63617.801      186.80109      187.5228       954.47292    
     72500  -64030.71       469.61728     -63561.092      186.7886       187.51156      954.82331    
     72600  -63967.392      468.00721     -63499.385      186.7783       187.50246      955.17371    
     72700  -63912.587      471.52524     -63441.062      186.76617      187.49144      955.5241     
     72800  -63850.07       469.77566     -63380.295      186.75573      187.48218      955.8745     
[...]
     81600  -76788.2        592.39739     -76195.802      186.43368      187.29524      986.70916    
     81700  -77007.58       587.364       -76420.216      186.44689      187.31266      987.05955    
     81800  -77222.577      582.37885     -76640.198      186.45995      187.32991      987.40994    
     81900  -77433.703      577.70504     -76855.998      186.47289      187.347        987.76034    
     82000  -77641.839      573.98133     -77067.857      186.48574      187.36397      988.11073    
     82100  -77845.932      569.91122     -77276.021      186.49849      187.38081      988.46113    
     82200  -78046.493      565.8157      -77480.677      186.5112       187.39757      988.81152    
     82300  -78245.054      563.01242     -77682.042      186.52381      187.4142       989.16191    
     82400  -78439.614      559.30572     -77880.308      186.53639      187.43076      989.51231    
     82500  -78631.83       556.18015     -78075.65       186.54888      187.44719      989.8627     
     82600  -78822.231      553.95945     -78268.272      186.56134      187.46355      990.21309    
     82700  -79009.034      550.70632     -78458.328      186.57371      187.47979      990.56349    
     82800  -79194.073      548.11181     -78645.962      186.58601      187.49593      990.91388    
     82900  -79377.764      546.41936     -78831.345      186.59821      187.51192      991.26428    
     83000  -79558.781      544.15316     -79014.627      186.61034      187.52779      991.61467    
     83100  -79737.546      541.61172     -79195.934      186.62242      187.54356      991.96506    
     83200  -79915.061      539.6635      -79375.397      186.63452      187.55927      992.31546    
     83300  -80091.22       538.06175     -79553.158      186.64658      187.57487      992.66585    
     83400  -80265.885      536.54697     -79729.338      186.65868      187.59045      993.01625    
     83500  -80439.016      534.9973      -79904.019      186.67075      187.60595      993.36664    
     83600  -80610.638      533.39965     -80077.238      186.68278      187.62139      993.71703    
     83700  -80780.81       531.80353     -80249.006      186.69471      187.6367       994.06743    
     83800  -80949.572      530.24216     -80419.33       186.70657      187.65191      994.41782    
     83900  -81116.958      528.72268     -80588.236      186.71838      187.66707      994.76822    
     84000  -81283.026      527.26352     -80755.763      186.73012      187.68216      995.11861    
     84100  -81447.842      525.88328     -80921.959      186.7418       187.69717      995.469      
     84200  -81611.495      524.60971     -81086.886      186.75344      187.71214      995.8194     
     84300  -81774.085      523.48873     -81250.596      186.76502      187.72704      996.16979    
     84400  -81935.616      522.47687     -81413.139      186.77657      187.74189      996.52018    
     84500  -82096.067      521.51033     -81574.557      186.78807      187.75669      996.87058    
     84600  -82255.257      520.36778     -81734.889      186.79952      187.77142      997.22097    
     84700  -82413.238      519.05625     -81894.182      186.81093      187.7861       997.57137    
     84800  -82567.643      515.8688      -82051.774      186.82235      187.80077      997.92176    
     84900  -82717.22       511.69773     -82205.522      186.83388      187.81555      998.27215    
     85000  -82862.979      507.9144      -82355.065      186.84537      187.83026      998.62255    
     85100  -83005.629      504.99249     -82500.636      186.85697      187.84508      998.97294    
     85200  -83143.897      501.5241      -82642.373      186.86856      187.85987      999.32334    
     85300  -83278.558      498.24457     -82780.313      186.88025      187.87474      999.67373    
     85400  -83409.333      494.89856     -82914.434      186.89197      187.88962      1000.0241    
     85500  -83536.401      491.70531     -83044.696      186.90379      187.90458      1000.3745    
     85600  -83659.515      488.4642      -83171.051      186.91566      187.91958      1000.7249    
     85700  -83778.79       485.33873     -83293.451      186.92763      187.93466      1001.0753    
     85800  -83894.143      482.29937     -83411.844      186.93968      187.9498       1001.4257    
     85900  -84005.363      479.19552     -83526.168      186.95183      187.96503      1001.7761    
     86000  -84112.591      476.23975     -83636.351      186.96408      187.98035      1002.1265    
     86100  -84215.564      473.25121     -83742.313      186.97644      187.99576      1002.4769    
     86200  -84314.326      470.36514     -83843.961      186.98893      188.01129      1002.8273    
     86300  -84408.774      467.57666     -83941.197      187.00155      188.02694      1003.1777    
     86400  -84498.816      464.89819     -84033.918      187.01431      188.04272      1003.5281    
     86500  -84584.29       462.27375     -84122.016      187.02722      188.05864      1003.8785    
     86600  -84665.153      459.787       -84205.366      187.0403       188.07472      1004.2289    
     86700  -84741.214      457.39847     -84283.816      187.05355      188.09096      1004.5792    
     86800  -84812.336      455.14636     -84357.19       187.06699      188.10739      1004.9296    
     86900  -84878.346      453.05839     -84425.287      187.08063      188.12401      1005.28      
     87000  -84939.066      451.1864      -84487.879      187.09446      188.14083      1005.6304    
     87100  -84994.819      449.93883     -84544.88       187.10829      188.15763      1005.9808    
     87200  -85045.586      448.92975     -84596.657      187.1222       188.17446      1006.3312    
     87300  -85091.262      447.83699     -84643.425      187.13626      188.19143      1006.6816    
     87400  -85131.803      446.86595     -84684.937      187.15044      188.20847      1007.032     
     87500  -85167.088      446.21262     -84720.875      187.16471      188.22559      1007.3824    
     87600  -85197.136      445.89297     -84751.243      187.17918      188.24291      1007.7328    
     87700  -85221.909      445.65231     -84776.256      187.19374      188.26027      1008.0832    
     87800  -85241.303      445.29332     -84796.01       187.20848      188.27778      1008.4336    
     87900  -85255.228      445.05694     -84810.171      187.22334      188.29539      1008.784     
     88000  -85263.652      445.13763     -84818.515      187.23834      188.31316      1009.1344    
     88100  -85266.571      445.32752     -84821.243      187.25344      188.33102      1009.4848    
     88200  -85263.844      445.18918     -84818.655      187.26857      188.34891      1009.8352    
     88300  -85255.033      444.54217     -84810.49       187.28336      188.36644      1010.1855    
     88400  -85239.667      443.93852     -84795.728      187.29813      188.38391      1010.5359    
     88500  -85217.22       443.68998     -84773.53       187.31257      188.40109      1010.8863    
     88600  -85187.453      443.40032     -84744.053      187.32705      188.41832      1011.2367    
     88700  -85150.28       442.48527     -84707.795      187.34128      188.43527      1011.5871    
     88800  -85105.3        440.63355     -84664.666      187.35552      188.45227      1011.9375    
     88900  -85052.025      438.171       -84613.854      187.36958      188.46906      1012.2879    
     89000  -84990.29       435.49671     -84554.793      187.38366      188.48584      1012.6383    
     89100  -84919.965      432.02227     -84487.943      187.3977       188.50259      1012.9887    
     89200  -84840.697      426.93302     -84413.764      187.41164      188.51917      1013.3391    
     89300  -84752.579      420.39317     -84332.186      187.42569      188.53576      1013.6895    
     89400  -84655.439      412.06675     -84243.372      187.43959      188.55211      1014.0399    
     89500  -84549.791      401.99493     -84147.796      187.45383      188.56862      1014.3903    
     89600  -84436.236      389.88786     -84046.348      187.46785      188.58487      1014.7407    
     89700  -84316.446      376.25474     -83940.191      187.48203      188.60124      1015.0911    
     89800  -84194.074      363.38115     -83830.693      187.4957       188.61745      1015.4415    
     89900  -84121.654      404.14159     -83717.512      187.50835      188.63309      1015.7918    
     90000  -84102.339      479.03909     -83623.3        187.50497      188.63331      1016.1422    
     90100  -84140.729      523.20664     -83617.523      187.51504      188.64969      1016.4926    
     90200  -84198.212      473.70146     -83724.51       187.52089      188.66431      1016.843     
     90300  -84243.368      421.8276      -83821.541      187.52091      188.67405      1017.1934    
     90400  -84275.996      416.9844      -83859.012      187.52909      188.69569      1017.5438    
     90500  -84304.337      453.26782     -83851.07       187.54143      188.72056      1017.8942    
     90600  -84355.982      495.49699     -83860.486      187.54261      188.73636      1018.2446    
     90700  -84412.143      467.00489     -83945.138      187.5509       188.7593       1018.595     
     90800  -84434.629      411.17009     -84023.459      187.56786      188.78577      1018.9454    
     90900  -84445.945      419.47941     -84026.465      187.582        188.80835      1019.2958    
     91000  -84447.113      467.86183     -83979.251      187.59312      188.82902      1019.6462    
     91100  -84439.011      473.9267      -83965.085      187.61092      188.84668      1019.9966    
     91200  -84466.164      461.30361     -84004.861      187.6267       188.86977      1020.347     
     91300  -84480.949      424.96214     -84055.987      187.64408      188.89591      1020.6974    
     91400  -84481.088      417.6778      -84063.41       187.66446      188.91814      1021.0478    
     91500  -84480.269      457.97642     -84022.293      187.68738      188.94805      1021.3981    
     91600  -84466.644      477.73681     -83988.907      187.70859      188.97415      1021.7485    
     91700  -84494.062      483.71266     -84010.349      187.73768      189.00812      1022.0989    
     91800  -84527.805      444.6786      -84083.126      187.7655       189.04174      1022.4493    
     91900  -84551.806      417.95363     -84133.853      187.79092      189.07267      1022.7997    
     92000  -84564.35       433.58146     -84130.768      187.8109       189.10295      1023.1501    
     92100  -84567.479      467.48094     -84099.998      187.83271      189.13028      1023.5005    
     92200  -84573.16       475.32302     -84097.837      187.85574      189.1583       1023.8509    
     92300  -84588.423      446.70638     -84141.716      187.87771      189.18648      1024.2013    
     92400  -84605.806      426.40481     -84179.401      187.90471      189.21628      1024.5517    
     92500  -84587.778      426.02442     -84161.753      187.92943      189.24398      1024.9021    
     92600  -84583.843      463.01074     -84120.832      187.96274      189.27505      1025.2525    
     92700  -84572.11       471.8953      -84100.214      187.99214      189.29997      1025.6029    
     92800  -84572.932      450.36277     -84122.57       188.02304      189.32611      1025.9533    
     92900  -84583.734      435.64115     -84148.093      188.04941      189.35011      1026.3037    
     93000  -84601.327      447.58359     -84153.744      188.08411      189.38164      1026.6541    
     93100  -84614.201      454.49629     -84159.704      188.10971      189.40402      1027.0045    
     93200  -84624.335      446.29234     -84178.043      188.13826      189.42742      1027.3548    
     93300  -84637.127      442.33559     -84194.791      188.16436      189.44868      1027.7052    
     93400  -84641.857      442.3599      -84199.497      188.18679      189.46452      1028.0556    
     93500  -84643.011      448.33169     -84194.68       188.20973      189.4857       1028.406     
     93600  -84651.436      456.84022     -84194.596      188.23432      189.50901      1028.7564    
     93700  -84655.35       447.99622     -84207.354      188.2558       189.53569      1029.1068    
     93800  -84659.01       442.03443     -84216.975      188.27682      189.56726      1029.4572    
     93900  -84660.304      446.89879     -84213.406      188.2974       189.60158      1029.8076    
     94000  -84657.529      454.56676     -84202.962      188.3212       189.63497      1030.158     
     94100  -84662.68       457.44832     -84205.231      188.35295      189.66925      1030.5084    
     94200  -84675.242      450.87986     -84224.362      188.38056      189.70154      1030.8588    
     94300  -84690.478      442.84248     -84247.636      188.40835      189.737        1031.2092    
     94400  -84700.994      443.49453     -84257.5        188.43529      189.76997      1031.5596    
     94500  -84704.871      448.48031     -84256.391      188.45835      189.79832      1031.91      
     94600  -84708.784      453.9268      -84254.857      188.4816       189.82371      1032.2604    
     94700  -84714.521      448.54913     -84265.972      188.50225      189.84539      1032.6108    
     94800  -84721.413      442.60689     -84278.806      188.52128      189.86546      1032.9611    
     94900  -84715.991      438.48221     -84277.508      188.54082      189.88091      1033.3115    
     95000  -84707.999      446.89119     -84261.108      188.56756      189.89614      1033.6619    
     95100  -84711.516      464.21664     -84247.299      188.59263      189.90661      1034.0123    
     95200  -84728.927      466.19061     -84262.737      188.62102      189.91912      1034.3627    
     95300  -84743.969      440.52786     -84303.441      188.64586      189.92856      1034.7131    
     95400  -84766.239      435.25896     -84330.98       188.66886      189.93703      1035.0635    
     95500  -84768.09       436.22873     -84331.861      188.69284      189.94692      1035.4139    
     95600  -84757.793      447.13014     -84310.663      188.71476      189.95486      1035.7643    
     95700  -84749.186      461.9462      -84287.24       188.7345       189.96358      1036.1147    
     95800  -84745.684      460.06696     -84285.617      188.7538       189.97169      1036.4651    
     95900  -84747.085      444.97908     -84302.106      188.77147      189.98322      1036.8155    
     96000  -84758.974      440.95771     -84318.016      188.78119      189.99798      1037.1659    
     96100  -84760.719      441.15241     -84319.566      188.79137      190.01696      1037.5163    
     96200  -84759.824      452.77446     -84307.049      188.80035      190.03998      1037.8667    
     96300  -84763.481      459.47989     -84304.001      188.80358      190.06111      1038.2171    
     96400  -84771.477      451.25802     -84320.219      188.80743      190.08367      1038.5674    
     96500  -84778.048      436.885       -84341.163      188.81003      190.10492      1038.9178    
     96600  -84781.016      438.32116     -84342.695      188.81292      190.12221      1039.2682    
     96700  -84776.393      451.98966     -84324.403      188.81885      190.13481      1039.6186    
     96800  -84780.924      464.13065     -84316.794      188.8203       190.14279      1039.969     
     96900  -84788.724      450.89908     -84337.825      188.81913      190.15197      1040.3194    
     97000  -84796.953      436.19144     -84360.761      188.81239      190.15653      1040.6698    
     97100  -84802.867      440.89906     -84361.968      188.80659      190.16412      1041.0202    
     97200  -84809.345      457.58585     -84351.759      188.79671      190.16683      1041.3706    
     97300  -84811.444      456.20262     -84355.242      188.78941      190.16755      1041.721     
     97400  -84821.673      448.33363     -84373.339      188.77839      190.16624      1042.0714    
     97500  -84828.572      437.61953     -84390.953      188.76835      190.16675      1042.4218    
     97600  -84833.099      440.49906     -84392.6        188.75751      190.16553      1042.7722    
     97700  -84835.779      454.39873     -84381.381      188.74848      190.16449      1043.1226    
     97800  -84828.096      452.8546      -84375.241      188.73922      190.16047      1043.473     
     97900  -84836.092      454.33726     -84381.755      188.7322       190.15649      1043.8234    
     98000  -84840.182      443.55372     -84396.628      188.7267       190.15218      1044.1738    
     98100  -84843.211      438.10746     -84405.103      188.72031      190.14636      1044.5241    
     98200  -84839.005      441.88458     -84397.121      188.71393      190.14148      1044.8745    
     98300  -84835.089      454.03108     -84381.058      188.70504      190.13868      1045.2249    
     98400  -84832.794      457.86786     -84374.926      188.69686      190.13764      1045.5753    
     98500  -84836.507      450.91319     -84385.594      188.68843      190.14006      1045.9257    
     98600  -84849.135      446.56963     -84402.566      188.67971      190.14379      1046.2761    
     98700  -84855.086      443.65935     -84411.427      188.66978      190.15173      1046.6265    
     98800  -84857.461      447.48087     -84409.98       188.6594       190.16175      1046.9769    
     98900  -84858.065      451.60217     -84406.463      188.64688      190.17444      1047.3273    
     99000  -84852.679      447.71371     -84404.965      188.63247      190.18965      1047.6777    
     99100  -84856.443      452.79447     -84403.648      188.61843      190.20536      1048.0281    
     99200  -84851.905      447.74654     -84404.158      188.60446      190.22193      1048.3785    
     99300  -84856.328      448.8952      -84407.432      188.59312      190.23568      1048.7289    
     99400  -84854.606      442.31206     -84412.294      188.5846       190.24836      1049.0793    
     99500  -84845.648      439.98478     -84405.663      188.5784       190.25857      1049.4297    
     99600  -84836.042      448.5447      -84387.498      188.57273      190.27057      1049.7801    
     99700  -84831.124      458.66301     -84372.461      188.56865      190.27992      1050.1304    
     99800  -84831.309      455.7494      -84375.559      188.56985      190.29065      1050.4808    
     99900  -84843.697      446.97558     -84396.722      188.57263      190.29804      1050.8312    
    100000  -84858.328      441.05414     -84417.274      188.57924      190.30613      1051.1816    
Loop time of 12765.7 on 12 procs for 100000 steps with 11560 atoms

Performance: 0.677 ns/day, 35.460 hours/ns, 7.833 timesteps/s, 90.555 katom-step/s
57.7% CPU use with 12 MPI tasks x 1 OpenMP threads

MPI task timing breakdown:
Section |  min time  |  avg time  |  max time  |%varavg| %total
---------------------------------------------------------------
Pair    | 1956.6     | 2434.9     | 2960.3     | 600.7 | 19.07
Neigh   | 3.8952     | 7.7105     | 11.79      |  96.3 |  0.06
Comm    | 1101.8     | 1434.9     | 1798.2     | 502.0 | 11.24
Output  | 30.884     | 32.129     | 33.293     |  13.8 |  0.25
Modify  | 7637.7     | 7923.8     | 8274.9     | 229.7 | 62.07
Other   |            | 932.3      |            |       |  7.30

Nlocal:        963.333 ave        1597 max           0 min
Histogram: 4 0 0 0 0 0 0 0 4 4
Nghost:        1249.67 ave        2027 max         102 min
Histogram: 4 0 0 0 0 0 0 1 5 2
Neighs:              0 ave           0 max           0 min
Histogram: 12 0 0 0 0 0 0 0 0 0

Total # of neighbors = 0
Ave neighs/atom = 0
Neighbor list builds = 625
Dangerous builds = 0
Total wall time: 3:32:48
