LAMMPS (2 Aug 2023 - Update 3)
OMP_NUM_THREADS environment is not set. Defaulting to 1 thread. (src/comm.cpp:98)
  using 1 OpenMP thread(s) per MPI task
Reading data file ...
  orthogonal box = (-100 -100 -2.3312512) to (100 100 41.316429)
  4 by 4 by 1 MPI processor grid
  reading atoms ...
  1824 atoms
  read_data CPU = 0.184 seconds
Replication is creating a 1x1x19 = 19 times larger system...
  orthogonal box = (-100 -100 -2.3312512) to (100 100 826.97468)
  1 by 2 by 8 MPI processor grid
  34656 atoms
  replicate CPU = 0.480 seconds
11400 atoms in group SR
Deleted 11400 atoms, new total = 23256
System init for write_data ...
WARNING: Communication cutoff is 0.0. No ghost atoms will be generated. Atoms may get lost. (src/comm_brick.cpp:210)
Reading airebo potential file CH.airebo with DATE: 2011-10-25
Reading airebo potential file CH.airebo with DATE: 2011-10-25
Reading airebo potential file CH.airebo with DATE: 2011-10-25
Neighbor list info ...
  update: every = 1 steps, delay = 0 steps, check = yes
  max neighbors/atom: 2000, page size: 100000
  master list distance cutoff = 13.2
  ghost atom cutoff = 13.2
  binsize = 6.6, bins = 31 31 126
  6 neighbor lists, perpetual/occasional/extra = 6 0 0
  (1) pair airebo, perpetual, skip from (5)
      attributes: full, newton on, ghost
      pair build: skip/ghost
      stencil: none
      bin: none
  (2) pair airebo, perpetual, skip from (5)
      attributes: full, newton on, ghost
      pair build: skip/ghost
      stencil: none
      bin: none
  (3) pair airebo, perpetual, skip from (5)
      attributes: full, newton on, ghost
      pair build: skip/ghost
      stencil: none
      bin: none
  (4) pair lj/cut, perpetual, skip from (6)
      attributes: half, newton on, cut 13
      pair build: skip
      stencil: none
      bin: none
  (5) neighbor class addition, perpetual
      attributes: full, newton on, ghost
      pair build: full/bin/ghost
      stencil: full/ghost/bin/3d
      bin: standard
  (6) neighbor class addition, perpetual
      attributes: half, newton on, cut 13
      pair build: half/bin/atomonly/newton
      stencil: half/bin/3d
      bin: standard
Setting up sd style minimization ...
  Unit style    : metal
  Current step  : 0
Per MPI rank memory allocation (min/avg/max) = 12.99 | 13.37 | 13.76 Mbytes
   Step          Temp          E_pair         E_mol          TotEng         Press     
         0   0             -172488.86      0             -172488.86     -77.843168    
         1   0             -172488.98      0             -172488.98     -77.708063    
Loop time of 0.791158 on 16 procs for 1 steps with 23256 atoms

40.0% CPU use with 16 MPI tasks x 1 OpenMP threads

Minimization stats:
  Stopping criterion = energy tolerance
  Energy initial, next-to-last, final = 
     -172488.855987673  -172488.855987673  -172488.982743234
  Force two-norm initial, final = 5.6019795 1.4442048
  Force max component initial, final = 0.036762983 0.0094736875
  Final line search alpha, max atom move = 1 0.0094736875
  Iterations, force evaluations = 1 2

MPI task timing breakdown:
Section |  min time  |  avg time  |  max time  |%varavg| %total
---------------------------------------------------------------
Pair    | 0.095957   | 0.11337    | 0.14389    |   4.0 | 14.33
Neigh   | 0          | 0          | 0          |   0.0 |  0.00
Comm    | 0.056185   | 0.11216    | 0.16214    |   7.7 | 14.18
Output  | 0          | 0          | 0          |   0.0 |  0.00
Modify  | 0          | 0          | 0          |   0.0 |  0.00
Other   |            | 0.5656     |            |       | 71.49

Nlocal:         1453.5 ave        1505 max        1402 min
Histogram: 4 4 0 0 0 0 0 0 4 4
Nghost:         2184.5 ave        2236 max        2133 min
Histogram: 4 4 0 0 0 0 0 0 4 4
Neighs:              0 ave           0 max           0 min
Histogram: 16 0 0 0 0 0 0 0 0 0

Total # of neighbors = 0
Ave neighs/atom = 0
Neighbor list builds = 0
Dangerous builds = 0
Setting up Verlet run ...
  Unit style    : metal
  Current step  : 1
  Time step     : 0.001
Per MPI rank memory allocation (min/avg/max) = 13.61 | 14 | 14.38 Mbytes
   Step          Temp          E_pair         E_mol          TotEng         Press          Volume    
         1   300           -172488.98      0             -171587.2      -48.671409      33172237     
Loop time of 0.0329981 on 16 procs for 0 steps with 23256 atoms

43.2% CPU use with 16 MPI tasks x 1 OpenMP threads

MPI task timing breakdown:
Section |  min time  |  avg time  |  max time  |%varavg| %total
---------------------------------------------------------------
Pair    | 0          | 0          | 0          |   0.0 |  0.00
Neigh   | 0          | 0          | 0          |   0.0 |  0.00
Comm    | 0          | 0          | 0          |   0.0 |  0.00
Output  | 0          | 0          | 0          |   0.0 |  0.00
Modify  | 0          | 0          | 0          |   0.0 |  0.00
Other   |            | 0.033      |            |       |100.00

Nlocal:         1453.5 ave        1462 max        1445 min
Histogram: 8 0 0 0 0 0 0 0 0 8
Nghost:         2184.5 ave        2193 max        2176 min
Histogram: 8 0 0 0 0 0 0 0 0 8
Neighs:              0 ave           0 max           0 min
Histogram: 16 0 0 0 0 0 0 0 0 0

Total # of neighbors = 0
Ave neighs/atom = 0
Neighbor list builds = 0
Dangerous builds = 0
WARNING: Dump 2 includes no atom IDs and is not sorted by ID. This may complicate post-processing tasks or visualization (src/dump.cpp:221)
Setting up Verlet run ...
  Unit style    : metal
  Current step  : 0
  Time step     : 0.001
Per MPI rank memory allocation (min/avg/max) = 15.11 | 15.5 | 15.88 Mbytes
   Step         PotEng         KinEng         TotEng           Lx             Ly             Lz      
         0  -172488.98      901.7834      -171587.2       200            200            829.30593    
       100  -171969.04      440.29278     -171528.75      199.98821      199.98842      829.72058    
       200  -171988.74      537.48165     -171451.26      199.97717      199.97732      830.13523    
       300  -171928.2       569.73032     -171358.47      199.99103      199.99092      830.54989    
       400  -171875.07      618.31985     -171256.75      199.98979      199.98985      830.96454    
       500  -171841.51      693.24704     -171148.26      199.97178      199.97079      831.37919    
       600  -171753.3       716.59688     -171036.7       199.98017      199.97847      831.79384    
       700  -171708.35      782.73785     -170925.61      199.99009      199.98851      832.2085     
       800  -171651.78      830.93832     -170820.84      199.97108      199.96741      832.62315    
       900  -171608.58      878.89277     -170729.69      199.96853      199.96299      833.0378     
      1000  -171568.34      908.4578      -170659.88      199.9841       199.97778      833.45246    
      1100  -171551.34      926.1904      -170625.15      199.97483      199.96547      833.86711    
      1200  -171564.67      922.19246     -170642.47      199.96291      199.94988      834.28176    
      1300  -171574.28      893.1101      -170681.17      199.97469      199.95938      834.69642    
      1400  -171580.19      882.15661     -170698.04      199.97524      199.95554      835.11107    
      1500  -171571.72      890.46744     -170681.25      199.96024      199.93542      835.52572    
      1600  -171551.88      907.19306     -170644.69      199.96612      199.93683      835.94037    
      1700  -171528.96      911.67318     -170617.28      199.97647      199.94089      836.35503    
      1800  -171524.48      911.16402     -170613.31      199.96195      199.92022      836.76968    
      1900  -171541.16      907.15221     -170634.01      199.95931      199.91077      837.18433    
      2000  -171534.37      881.58626     -170652.79      199.97468      199.91843      837.59899    
      2100  -171534.11      888.22523     -170645.89      199.9678       199.90395      838.01364    
      2200  -171516.63      898.76093     -170617.87      199.95639      199.88336      838.42829    
      2300  -171498.33      909.4105      -170588.91      199.97018      199.88734      838.84294    
      2400  -171485.98      910.02468     -170575.95      199.97509      199.88283      839.2576     
      2500  -171494.7       909.80647     -170584.89      199.96146      199.85804      839.67225    
      2600  -171490.44      889.69722     -170600.75      199.96561      199.85018      840.0869     
      2700  -171485.42      886.72641     -170598.7       199.97745      199.8507       840.50156    
      2800  -171474.52      900.77556     -170573.75      199.96983      199.83029      840.91621    
      2900  -171447.52      902.87067     -170544.65      199.96461      199.81159      841.33086    
      3000  -171438.56      911.81826     -170526.75      199.97667      199.81154      841.74552    
      3100  -171433.93      906.72993     -170527.2       199.97924      199.79999      842.16017    
      3200  -171430.94      892.89741     -170538.05      199.96984      199.77619      842.57482    
      3300  -171426.59      885.50626     -170541.09      199.97464      199.76832      842.98947    
      3400  -171415.32      893.60727     -170521.71      199.98287      199.76194      843.40413    
      3500  -171395.61      906.66228     -170488.95      199.97536      199.74047      843.81878    
      3600  -171380.13      913.59148     -170466.54      199.97341      199.72596      844.23343    
      3700  -171375.28      910.70015     -170464.58      199.98342      199.72074      844.64809    
      3800  -171373.77      902.22532     -170471.55      199.97979      199.70434      845.06274    
      3900  -171365.61      893.69221     -170471.92      199.97234      199.68353      845.47739    
      4000  -171348.77      892.92761     -170455.85      199.97864      199.67555      845.89205    
      4100  -171323.39      897.94435     -170425.44      199.98015      199.6652       846.3067     
      4200  -171316.52      917.66673     -170398.86      199.97141      199.64353      846.72135    
      4300  -171295.81      906.04271     -170389.77      199.97093      199.63018      847.136      
      4400  -171296.53      902.22122     -170394.31      199.97588      199.62439      847.55066    
      4500  -171288.11      892.1478      -170395.96      199.97034      199.60664      847.96531    
      4600  -171278.8       895.49802     -170383.3       199.96217      199.58814      848.37996    
      4700  -171256.87      900.05215     -170356.82      199.96512      199.58135      848.79462    
      4800  -171234.7       907.95177     -170326.75      199.96419      199.56966      849.20927    
      4900  -171217.38      908.7195      -170308.66      199.95323      199.54988      849.62392    
      5000  -171215.87      908.01151     -170307.86      199.95074      199.53842      850.03857    
      5100  -171201.55      891.00195     -170310.55      199.95196      199.53079      850.45323    
      5200  -171189.81      892.21687     -170297.59      199.94114      199.51272      850.86788    
      5300  -171168.19      896.85983     -170271.33      199.93293      199.49736      851.28253    
      5400  -171145.52      904.34379     -170241.17      199.93296      199.49055      851.69719    
      5500  -171133.19      914.69731     -170218.5       199.92586      199.47766      852.11184    
      5600  -171124.46      913.63436     -170210.83      199.9136       199.46008      852.52649    
      5700  -171107.4       895.92196     -170211.48      199.90915      199.45056      852.94115    
      5800  -171100.31      896.4377      -170203.87      199.90441      199.44124      853.3558     
      5900  -171079.58      898.17738     -170181.4       199.89223      199.42484      853.77045    
      6000  -171053.25      901.49937     -170151.75      199.88272      199.41199      854.1851     
      6100  -171032.95      907.65082     -170125.3       199.87782      199.40387      854.59976    
      6200  -171018.56      908.38586     -170110.17      199.86665      199.39032      855.01441    
      6300  -171006.13      899.60203     -170106.53      199.85363      199.37534      855.42906    
      6400  -170993.86      892.86141     -170101         199.84572      199.36594      855.84372    
      6500  -170973.2       891.1349      -170082.06      199.83691      199.35547      856.25837    
      6600  -170949.34      897.37652     -170051.96      199.82256      199.34037      856.67302    
      6700  -170929.09      906.32636     -170022.76      199.81125      199.3284       857.08768    
      6800  -170914.58      912.06289     -170002.51      199.80315      199.31938      857.50233    
      6900  -170899.86      906.32161     -169993.54      199.79097      199.30673      857.91698    
      7000  -170880.2       893.65214     -169986.55      199.77665      199.29176      858.33163    
      7100  -170865.96      894.87115     -169971.08      199.76631      199.28084      858.74629    
      7200  -170838.18      895.43166     -169942.75      199.75598      199.26999      859.16094    
      7300  -170817.97      908.33794     -169909.64      199.74193      199.25517      859.57559    
      7400  -170789.31      904.29044     -169885.02      199.72916      199.24139      859.99025    
      7500  -170771.98      899.71852     -169872.26      199.7181       199.22956      860.4049     
      7600  -170761.06      897.87943     -169863.18      199.70519      199.21555      860.81955    
      7700  -170749.26      901.91708     -169847.35      199.69141      199.20004      861.2342     
      7800  -170709.93      889.48932     -169820.44      199.67928      199.18721      861.64886    
      7900  -170697.7       910.41784     -169787.28      199.66756      199.17314      862.06351    
      8000  -170663.92      905.28832     -169758.63      199.65364      199.15675      862.47816    
      8100  -170644.9       902.7784      -169742.12      199.64079      199.14217      862.89282    
      8200  -170629.44      895.70192     -169733.74      199.62926      199.12697      863.30747    
      8300  -170615.38      897.12712     -169718.25      199.61466      199.10897      863.72212    
      8400  -170593.28      901.93716     -169691.34      199.60177      199.09239      864.13678    
      8500  -170558.25      901.47172     -169656.77      199.59181      199.07729      864.55143    
      8600  -170538         912.44047     -169625.56      199.57815      199.05949      864.96608    
      8700  -170511.21      904.61081     -169606.6       199.5637       199.03937      865.38073    
      8800  -170497.43      901.66745     -169595.77      199.5527       199.02169      865.79539    
      8900  -170474.6       892.27245     -169582.32      199.54136      199.00455      866.21004    
      9000  -170450.01      893.49426     -169556.52      199.52749      198.98334      866.62469    
      9100  -170419.19      898.72038     -169520.47      199.51509      198.96296      867.03935    
      9200  -170396.79      911.34149     -169485.44      199.50535      198.94561      867.454      
      9300  -170364.29      902.54965     -169461.74      199.49356      198.92464      867.86865    
      9400  -170353.66      905.34779     -169448.31      199.47919      198.90123      868.28331    
      9500  -170325.89      892.98505     -169432.9       199.46753      198.88039      868.69796    
      9600  -170304.14      896.56043     -169407.58      199.45796      198.86053      869.11261    
      9700  -170271.49      897.50796     -169373.98      199.44545      198.83812      869.52726    
      9800  -170247.91      906.94046     -169340.97      199.43198      198.81458      869.94192    
      9900  -170218.24      903.82173     -169314.42      199.42147      198.79255      870.35657    
     10000  -170192.59      897.16481     -169295.42      199.41051      198.77111      870.77122    
     10100  -170179.55      901.98736     -169277.56      199.3976       198.74676      871.18588    
     10200  -170148.18      894.46346     -169253.72      199.385        198.7223       871.60053    
     10300  -170115.78      893.36102     -169222.42      199.37462      198.70039      872.01518    
     10400  -170094.33      908.06704     -169186.26      199.36295      198.67693      872.42983    
     10500  -170057.75      903.11763     -169154.64      199.35019      198.65195      872.84449    
     10600  -170031.9       902.0514      -169129.85      199.33783      198.62798      873.25914    
     10700  -170014.32      904.47858     -169109.84      199.32659      198.60486      873.67379    
     10800  -169982.78      894.9202      -169087.86      199.31451      198.58087      874.08845    
     10900  -169959.51      900.3764      -169059.14      199.30168      198.5567       874.5031     
     11000  -169920.66      896.86372     -169023.8       199.29037      198.53338      874.91775    
     11100  -169897.82      908.8807      -168988.94      199.27841      198.51008      875.33241    
     11200  -169866.56      907.0244      -168959.53      199.26475      198.48531      875.74706    
     11300  -169842.83      905.44929     -168937.38      199.25227      198.46138      876.16171    
     11400  -169817.62      901.43844     -168916.18      199.2398       198.43878      876.57636    
     11500  -169784.76      896.25899     -168888.5       199.226        198.41466      876.99102    
     11600  -169762.25      909.02546     -168853.22      199.21219      198.39083      877.40567    
     11700  -169717.03      901.75497     -168815.28      199.19892      198.36912      877.82032    
     11800  -169692.29      909.75039     -168782.54      199.18469      198.34532      878.23498    
     11900  -169666.87      910.51431     -168756.36      199.16893      198.32179      878.64963    
     12000  -169630.4       897.62154     -168732.78      199.15495      198.30033      879.06428    
     12100  -169607.38      902.31097     -168705.07      199.14076      198.27806      879.47894    
     12200  -169571.47      900.00269     -168671.47      199.12467      198.25552      879.89359    
     12300  -169537.11      902.47774     -168634.64      199.11004      198.2342       880.30824    
     12400  -169500.69      900.69593     -168599.99      199.09593      198.21368      880.72289    
     12500  -169471.79      901.43853     -168570.35      199.07936      198.19197      881.13755    
     12600  -169447.24      903.68114     -168543.56      199.0631       198.17009      881.5522     
     12700  -169415.12      898.83735     -168516.28      199.04827      198.15129      881.96685    
     12800  -169378.7       894.90341     -168483.8       199.03194      198.1315       882.38151    
     12900  -169347.85      902.1929      -168445.66      199.01416      198.10988      882.79616    
     13000  -169306.97      899.70949     -168407.26      198.99768      198.09121      883.21081    
     13100  -169273.88      900.29629     -168373.58      198.98215      198.0735       883.62546    
     13200  -169245.65      901.09647     -168344.56      198.96388      198.05291      884.04012    
     13300  -169221.13      904.88052     -168316.25      198.94506      198.03357      884.45477    
     13400  -169186.45      900.03762     -168286.41      198.93002      198.01665      884.86942    
     13500  -169149.98      899.71162     -168250.27      198.91259      197.99868      885.28408    
     13600  -169109.51      899.23142     -168210.28      198.89279      197.97894      885.69873    
     13700  -169073.62      900.45777     -168173.16      198.87601      197.96092      886.11338    
     13800  -169048.98      909.08567     -168139.89      198.85888      197.94437      886.52804    
     13900  -169007.45      897.36063     -168110.09      198.83969      197.92571      886.94269    
     14000  -168985.53      905.50212     -168080.03      198.82158      197.90697      887.35734    
     14100  -168943.08      899.2317      -168043.85      198.8041       197.89052      887.77199    
     14200  -168905.72      901.93478     -168003.79      198.78741      197.87331      888.18665    
     14300  -168866.6       901.88798     -167964.71      198.76976      197.85532      888.6013     
     14400  -168839.43      907.97598     -167931.45      198.75163      197.83747      889.01595    
     14500  -168796.64      895.7982      -167900.84      198.73553      197.82005      889.43061    
     14600  -168770.66      900.84838     -167869.81      198.71935      197.80377      889.84526    
     14700  -168731.97      898.54265     -167833.43      198.70218      197.78596      890.25991    
     14800  -168691.66      900.08729     -167791.57      198.68602      197.76793      890.67457    
     14900  -168651.12      900.96262     -167750.15      198.67049      197.75229      891.08922    
     15000  -168616.23      903.99417     -167712.23      198.65461      197.7347       891.50387    
     15100  -168578.39      899.47827     -167678.91      198.63856      197.71642      891.91852    
     15200  -168548.03      900.89889     -167647.13      198.62364      197.70051      892.33318    
     15300  -168515.65      902.96166     -167612.68      198.60958      197.68331      892.74783    
     15400  -168476.54      904.24815     -167572.29      198.59364      197.66534      893.16248    
     15500  -168427.41      898.72241     -167528.69      198.57902      197.64784      893.57714    
     15600  -168390.85      903.62392     -167487.22      198.56644      197.6314       893.99179    
     15700  -168356.43      905.04267     -167451.39      198.55257      197.61453      894.40644    
     15800  -168318.56      899.33361     -167419.22      198.53818      197.59622      894.82109    
     15900  -168285.59      900.04663     -167385.54      198.52578      197.57919      895.23575    
     16000  -168248.79      903.19452     -167345.6       198.51413      197.563        895.6504     
     16100  -168197.63      898.55716     -167299.08      198.50133      197.54448      896.06505    
     16200  -168161.8       906.86206     -167254.94      198.48887      197.52658      896.47971    
     16300  -168117.56      900.2933      -167217.27      198.4786       197.51049      896.89436    
     16400  -168085.88      896.49973     -167189.39      198.46771      197.49272      897.30901    
     16500  -168059.65      905.0058      -167154.64      198.45496      197.47372      897.72367    
     16600  -168008.39      897.80789     -167110.58      198.44545      197.45752      898.13832    
     16700  -167960.77      896.44209     -167064.33      198.43652      197.44095      898.55297    
     16800  -167920.38      897.95021     -167022.43      198.42433      197.42201      898.96762    
     16900  -167881.15      898.40617     -166982.74      198.41431      197.40413      899.38228    
     17000  -167846.64      902.85928     -166943.78      198.40629      197.38838      899.79693    
     17100  -167808.42      901.88405     -166906.54      198.39543      197.37099      900.21158    
     17200  -167768.5       900.64581     -166867.86      198.38518      197.35176      900.62624    
     17300  -167717.79      894.76565     -166823.03      198.37629      197.33623      901.04089    
     17400  -167681.14      907.45253     -166773.69      198.36779      197.32073      901.45554    
     17500  -167636.27      907.03983     -166729.23      198.35788      197.30195      901.8702     
     17600  -167598.95      901.717       -166697.24      198.34765      197.28579      902.28485    
     17700  -167564.95      899.10939     -166665.84      198.34054      197.27084      902.6995     
     17800  -167514.75      893.32789     -166621.42      198.33156      197.25448      903.11415    
     17900  -167475.4       904.90294     -166570.5       198.32049      197.23761      903.52881    
     18000  -167436.73      911.82192     -166524.9       198.31322      197.22235      903.94346    
     18100  -167389.65      905.04235     -166484.6       198.30616      197.20925      904.35811    
     18200  -167349.89      899.12424     -166450.77      198.29509      197.1932       904.77277    
     18300  -167312.39      894.32534     -166418.07      198.28509      197.17641      905.18742    
     18400  -167264.46      895.36142     -166369.1       198.27825      197.16493      905.60207    
     18500  -167219.7       900.36118     -166319.34      198.27053      197.15192      906.01672    
     18600  -167178.33      906.62211     -166271.71      198.25945      197.13569      906.43138    
     18700  -167127.08      902.45973     -166224.62      198.25017      197.12309      906.84603    
     18800  -167081.81      902.91583     -166178.89      198.24395      197.11216      907.26068    
     18900  -167043.46      905.60689     -166137.86      198.23305      197.09844      907.67534    
     19000  -167004.59      900.98826     -166103.6       198.22138      197.08426      908.08999    
     19100  -166965.82      901.60002     -166064.22      198.21451      197.07431      908.50464    
     19200  -166917.12      904.11931     -166013         198.20553      197.0638       908.9193     
     19300  -166868.19      908.40829     -165959.78      198.1931       197.05015      909.33395    
     19400  -166819.35      903.40357     -165915.95      198.18419      197.03987      909.7486     
     19500  -166782.88      907.3573      -165875.52      198.17653      197.03218      910.16325    
     19600  -166737.61      902.37767     -165835.23      198.16492      197.0202       910.57791    
     19700  -166698.64      902.62161     -165796.02      198.15328      197.00927      910.99256    
     19800  -166649.16      897.61054     -165751.55      198.1461       197.00293      911.40721    
     19900  -166594.31      899.32166     -165694.99      198.13684      196.99466      911.82187    
     20000  -166553.98      910.8053      -165643.18      198.12333      196.98336      912.23652    
     20100  -166499.89      901.6585      -165598.23      198.11393      196.97582      912.65117    
     20200  -166455.76      897.41241     -165558.35      198.10599      196.97062      913.06583    
     20300  -166421.88      899.04589     -165522.84      198.09307      196.96099      913.48048    
     20400  -166369.13      890.5082      -165478.63      198.08103      196.952        913.89513    
     20500  -166318.47      901.94509     -165416.52      198.07291      196.94778      914.30978    
     20600  -166274.37      909.31786     -165365.05      198.06182      196.94074      914.72444    
     20700  -166222.61      905.59615     -165317.01      198.04795      196.93099      915.13909    
     20800  -166180.9       905.67617     -165275.22      198.03803      196.92556      915.55374    
     20900  -166133.84      898.78359     -165235.05      198.02853      196.92071      915.9684     
     21000  -166088.38      897.03739     -165191.34      198.01535      196.91183      916.38305    
     21100  -166031.61      899.1555      -165132.46      198.00339      196.90448      916.7977     
     21200  -165981.23      902.5394      -165078.69      197.99517      196.90129      917.21235    
     21300  -165932.61      900.18512     -165032.42      197.98401      196.8944       917.62701    
     21400  -165896.47      904.91254     -164991.55      197.96969      196.88506      918.04166    
     21500  -165844.51      892.81089     -164951.7       197.95994      196.87926      918.45631    
     21600  -165801.62      897.86692     -164903.75      197.95141      196.87497      918.87097    
     21700  -165743.42      902.02894     -164841.39      197.93873      196.86654      919.28562    
     21800  -165694.68      905.93981     -164788.74      197.9264       196.85777      919.70027    
     21900  -165648.15      904.85655     -164743.29      197.91842      196.85398      920.11493    
     22000  -165598.29      895.1041      -164703.19      197.90905      196.84771      920.52958    
     22100  -165553.29      894.9684      -164658.33      197.89548      196.8373       920.94423    
     22200  -165498.29      897.53533     -164600.76      197.8854       196.83034      921.35888    
     22300  -165447.72      906.28097     -164541.44      197.87796      196.82563      921.77354    
     22400  -165403.27      909.21954     -164494.05      197.86657      196.8164       922.18819    
     22500  -165357.37      904.38398     -164452.99      197.8545       196.80631      922.60284    
     22600  -165305.39      896.43201     -164408.96      197.84703      196.80021      923.0175     
     22700  -165257.78      900.5162      -164357.26      197.83916      196.79356      923.43215    
     22800  -165196.45      903.9182      -164292.53      197.82768      196.78229      923.8468     
     22900  -165147.21      904.54252     -164242.67      197.81832      196.77312      924.26146    
     23000  -165097.43      897.11596     -164200.32      197.81216      196.76727      924.67611    
     23100  -165054.44      898.20551     -164156.24      197.80333      196.75688      925.09076    
     23200  -165004.05      900.29091     -164103.76      197.79256      196.74506      925.50541    
     23300  -164950.81      911.04621     -164039.76      197.78642      196.73731      925.92007    
     23400  -164888.64      902.08834     -163986.56      197.78092      196.72849      926.33472    
     23500  -164847.09      905.20441     -163941.88      197.77081      196.71602      926.74937    
     23600  -164797.46      899.39071     -163898.06      197.76261      196.70453      927.16403    
     23700  -164741.45      893.38511     -163848.06      197.75745      196.69501      927.57868    
     23800  -164686.76      900.47674     -163786.28      197.74939      196.68356      927.99333    
     23900  -164632.44      904.10718     -163728.34      197.74111      196.67019      928.40798    
     24000  -164587.64      905.96358     -163681.67      197.73517      196.65963      928.82264    
     24100  -164534.78      899.56518     -163635.22      197.72817      196.64791      929.23729    
     24200  -164482.57      895.12117     -163587.45      197.72003      196.63407      929.65194    
     24300  -164435.24      899.67928     -163535.56      197.71343      196.62223      930.0666     
     24400  -164381.37      905.33348     -163476.04      197.70864      196.61113      930.48125    
     24500  -164318.78      901.76997     -163417.01      197.70043      196.59721      930.8959     
     24600  -164268.52      904.20002     -163364.32      197.69166      196.58198      931.31056    
     24700  -164222.24      899.33417     -163322.91      197.68728      196.57082      931.72521    
     24800  -164169.74      894.30875     -163275.44      197.68112      196.55832      932.13986    
     24900  -164116.63      896.6457      -163219.98      197.6718       196.54251      932.55451    
     25000  -164063.46      901.40205     -163162.05      197.6649       196.52878      932.96917    
     25100  -164009.98      904.46541     -163105.52      197.66027      196.5178       933.38382    
     25200  -163955.3       903.92599     -163051.37      197.65225      196.50343      933.79847    
     25300  -163903.86      905.14048     -162998.72      197.64333      196.48801      934.21313    
     25400  -163843.15      895.06459     -162948.09      197.63798      196.47655      934.62778    
     25500  -163792.25      894.59541     -162897.66      197.63075      196.46304      935.04243    
     25600  -163744.78      902.47945     -162842.3       197.62023      196.44707      935.45709    
     25700  -163687.41      905.54289     -162781.87      197.61352      196.43458      935.87174    
     25800  -163627.93      904.05819     -162723.88      197.608        196.42368      936.28639    
     25900  -163578.09      908.35207     -162669.74      197.59657      196.40736      936.70104    
     26000  -163525.65      901.34834     -162624.3       197.5861       196.39209      937.1157     
     26100  -163475.53      897.03673     -162578.5       197.58062      196.38178      937.53035    
     26200  -163415.27      894.95036     -162520.32      197.57169      196.36903      937.945      
     26300  -163356.44      898.21509     -162458.22      197.55923      196.35238      938.35966    
     26400  -163296.42      894.48284     -162401.94      197.5502       196.33995      938.77431    
     26500  -163250.52      903.87792     -162346.64      197.54451      196.33074      939.18896    
     26600  -163195.18      904.79804     -162290.39      197.53354      196.31651      939.60361    
     26700  -163135.19      903.52643     -162231.66      197.52033      196.30148      940.01827    
     26800  -163085.23      911.80572     -162173.43      197.51297      196.29122      940.43292    
     26900  -163022.96      899.96508     -162122.99      197.50436      196.28133      940.84757    
     27000  -162975.27      897.79227     -162077.47      197.49043      196.26643      941.26223    
     27100  -162921.68      896.9133      -162024.77      197.47843      196.25359      941.67688    
     27200  -162861.38      901.66397     -161959.72      197.47063      196.2453       942.09153    
     27300  -162799.25      900.50519     -161898.75      197.4588       196.234        942.50619    
     27400  -162747.89      904.332       -161843.56      197.44358      196.21954      942.92084    
     27500  -162689.69      900.72602     -161788.96      197.43232      196.20966      943.33549    
     27600  -162634.27      902.15507     -161732.11      197.42277      196.20149      943.75014    
     27700  -162570.3       901.70218     -161668.6       197.4079       196.18867      944.1648     
     27800  -162518.25      910.94468     -161607.3       197.39319      196.17662      944.57945    
     27900  -162461.25      903.2817      -161557.97      197.38354      196.16924      944.9941     
     28000  -162407.05      894.24629     -161512.81      197.37032      196.15935      945.40876    
     28100  -162352.09      897.77841     -161454.31      197.35314      196.14541      945.82341    
     28200  -162288.91      897.96813     -161390.95      197.34055      196.13642      946.23806    
     28300  -162229.06      900.15038     -161328.91      197.33028      196.12985      946.65272    
     28400  -162169.96      899.73756     -161270.22      197.3141       196.11755      947.06737    
     28500  -162119.88      904.94592     -161214.93      197.29688      196.10498      947.48202    
     28600  -162067.43      902.8969      -161164.53      197.28547      196.09785      947.89667    
     28700  -162016.35      896.56433     -161119.78      197.27236      196.08922      948.31133    
     28800  -161952.57      897.00703     -161055.56      197.25333      196.07547      948.72598    
     28900  -161887.06      898.66556     -160988.4       197.23798      196.06503      949.14063    
     29000  -161832.44      907.42949     -160925.01      197.22679      196.05876      949.55529    
     29100  -161767.23      903.45752     -160863.77      197.21058      196.04798      949.96994    
     29200  -161704.89      900.44228     -160804.44      197.19134      196.03377      950.38459    
     29300  -161651.7       900.41678     -160751.28      197.17791      196.02584      950.79924    
     29400  -161597.85      895.93931     -160701.91      197.16541      196.0183       951.2139     
     29500  -161538.86      895.56341     -160643.29      197.147        196.00453      951.62855    
     29600  -161475.45      900.98638     -160574.47      197.13018      195.99278      952.0432     
     29700  -161419.2       907.96774     -160511.23      197.11875      195.98563      952.45786    
     29800  -161357.79      902.70457     -160455.09      197.10369      195.97496      952.87251    
     29900  -161297.99      898.01054     -160399.98      197.08474      195.95977      953.28716    
     30000  -161241.13      893.07049     -160348.06      197.07131      195.94966      953.70182    
     30100  -161192.47      894.14617     -160298.33      197.05975      195.94135      954.11647    
     30200  -161128.01      896.91122     -160231.1       197.04225      195.92662      954.53112    
     30300  -161059.35      896.77919     -160162.57      197.02501      195.91174      954.94577    
     30400  -161000.09      901.17446     -160098.92      197.01452      195.9032       955.36043    
     30500  -160941.09      905.78969     -160035.3       197.00107      195.8917       955.77508    
     30600  -160876.02      905.23732     -159970.79      196.98179      195.87331      956.18973    
     30700  -160810.78      898.89765     -159911.88      196.9685       195.86086      956.60439    
     30800  -160764.17      899.82248     -159864.35      196.95916      195.85184      957.01904    
     30900  -160709.03      900.20528     -159808.83      196.94266      195.83466      957.43369    
     31000  -160639.85      897.19871     -159742.66      196.92516      195.81652      957.84835    
     31100  -160580.65      905.23688     -159675.42      196.91538      195.80544      958.263      
     31200  -160515.41      900.91261     -159614.5       196.90396      195.79219      958.67765    
     31300  -160461.45      905.03176     -159556.42      196.88636      195.77237      959.0923     
     31400  -160398.27      896.44295     -159501.83      196.87279      195.75559      959.50696    
     31500  -160345.65      896.00356     -159449.65      196.86349      195.74366      959.92161    
     31600  -160286.92      892.89518     -159394.03      196.85032      195.72678      960.33626    
     31700  -160223.98      902.93083     -159321.05      196.83358      195.70574      960.75092    
     31800  -160148.29      894.57864     -159253.71      196.82198      195.69049      961.16557    
     31900  -160085.88      897.90002     -159187.98      196.81284      195.67648      961.58022    
     32000  -160025.57      902.968       -159122.6       196.79749      195.6567       961.99487    
     32100  -159965.99      905.61045     -159060.38      196.78209      195.63602      962.40953    
     32200  -159909.91      901.54993     -159008.36      196.77315      195.62178      962.82418    
     32300  -159849.4       893.51762     -158955.88      196.76184      195.6057       963.23883    
     32400  -159792.41      902.46293     -158889.95      196.74465      195.58291      963.65349    
     32500  -159722.29      900.73377     -158821.56      196.73171      195.56471      964.06814    
     32600  -159662.55      903.18951     -158759.36      196.72351      195.55089      964.48279    
     32700  -159593.75      895.15274     -158698.59      196.70922      195.53095      964.89745    
     32800  -159533.8       897.59118     -158636.21      196.69212      195.50799      965.3121     
     32900  -159469.37      897.76268     -158571.61      196.68219      195.492        965.72675    
     33000  -159408.86      902.84592     -158506.01      196.67244      195.47644      966.1414     
     33100  -159346.62      902.16051     -158444.46      196.65576      195.45376      966.55606    
     33200  -159295.85      904.62481     -158391.22      196.64102      195.43335      966.97071    
     33300  -159225.8       888.53941     -158337.26      196.63303      195.41921      967.38536    
     33400  -159171.67      899.23267     -158272.43      196.62048      195.401        967.80002    
     33500  -159102.4       898.82033     -158203.58      196.60257      195.37768      968.21467    
     33600  -159040.97      901.30728     -158139.66      196.59022      195.35996      968.62932    
     33700  -158978.09      901.65916     -158076.43      196.58118      195.34584      969.04398    
     33800  -158906.28      893.61565     -158012.67      196.56611      195.32631      969.45863    
     33900  -158854.15      908.98808     -157945.17      196.54858      195.30471      969.87328    
     34000  -158782.27      906.65396     -157875.62      196.5378       195.28977      970.28793    
     34100  -158721.76      906.19357     -157815.56      196.52716      195.27528      970.70259    
     34200  -158667.91      901.63871     -157766.27      196.50926      195.25441      971.11724    
     34300  -158602.65      896.75937     -157705.9       196.4923       195.23478      971.53189    
     34400  -158539.66      901.73072     -157637.93      196.48216      195.22171      971.94655    
     34500  -158470.52      901.57279     -157568.95      196.46897      195.20646      972.3612     
     34600  -158408.67      904.02344     -157504.64      196.44992      195.18568      972.77585    
     34700  -158343.43      900.58951     -157442.84      196.43482      195.16952      973.1905     
     34800  -158280.74      900.09413     -157380.64      196.42375      195.15729      973.60516    
     34900  -158218.1       906.60521     -157311.49      196.40711      195.14014      974.01981    
     35000  -158145.36      908.43106     -157236.93      196.38786      195.12137      974.43446    
     35100  -158084.23      907.14139     -157177.09      196.37432      195.10763      974.84912    
     35200  -158023.36      899.62174     -157123.74      196.36167      195.09578      975.26377    
     35300  -157960.87      899.19519     -157061.67      196.34216      195.0779       975.67842    
     35400  -157897.26      901.77784     -156995.48      196.32312      195.06018      976.09308    
     35500  -157821.53      897.54553     -156923.98      196.30977      195.04919      976.50773    
     35600  -157764.28      913.29856     -156850.98      196.29435      195.03617      976.92238    
     35700  -157692.2       902.82883     -156789.37      196.27291      195.01793      977.33703    
     35800  -157633.11      903.07324     -156730.03      196.25454      195.00282      977.75169    
     35900  -157568.7       895.381       -156673.32      196.24164      194.99364      978.16634    
     36000  -157513.46      899.88861     -156613.57      196.22359      194.97967      978.58099    
     36100  -157451.19      903.14186     -156548.05      196.20152      194.96178      978.99565    
     36200  -157381.11      908.24926     -156472.86      196.18524      194.95019      979.4103     
     36300  -157310.9       905.58996     -156405.31      196.17186      194.94093      979.82495    
     36400  -157247.09      899.48992     -156347.6       196.15135      194.92542      980.23961    
     36500  -157193.98      906.02692     -156287.95      196.12965      194.90857      980.65426    
     36600  -157120.74      897.10413     -156223.63      196.11537      194.89892      981.06891    
     36700  -157055.46      900.23016     -156155.23      196.10005      194.88839      981.48356    
     36800  -156984.51      899.10973     -156085.4       196.07796      194.87135      981.89822    
     36900  -156922.46      905.33401     -156017.13      196.05827      194.8567       982.31287    
     37000  -156857.66      905.34247     -155952.32      196.04465      194.84803      982.72752    
     37100  -156790.04      902.57693     -155887.46      196.02715      194.83533      983.14218    
     37200  -156727.93      904.25674     -155823.67      196.00506      194.81818      983.55683    
     37300  -156660.54      899.21863     -155761.32      195.98796      194.80595      983.97148    
     37400  -156594.59      896.19528     -155698.4       195.97413      194.79645      984.38613    
     37500  -156531.36      902.86503     -155628.5       195.95476      194.78139      984.80079    
     37600  -156466.37      911.1768      -155555.19      195.93424      194.76488      985.21544    
     37700  -156392.18      903.46436     -155488.72      195.91874      194.75303      985.63009    
     37800  -156330.93      894.88936     -155436.04      195.90403      194.7419       986.04475    
     37900  -156269.77      892.52431     -155377.25      195.88441      194.72526      986.4594     
     38000  -156205.12      898.46293     -155306.66      195.86525      194.70916      986.87405    
     38100  -156134.53      900.04524     -155234.48      195.85195      194.69824      987.28871    
     38200  -156067.44      902.43022     -155165.01      195.83617      194.68519      987.70336    
     38300  -156001.34      902.55806     -155098.78      195.81629      194.66719      988.11801    
     38400  -155938.29      904.30334     -155033.98      195.79914      194.65195      988.53266    
     38500  -155869.32      900.53384     -154968.79      195.78628      194.64034      988.94732    
     38600  -155803.08      900.31192     -154902.77      195.7703       194.62574      989.36197    
     38700  -155736.29      900.40893     -154835.88      195.75105      194.60685      989.77662    
     38800  -155668.44      900.20805     -154768.23      195.73597      194.59216      990.19128    
     38900  -155603.2       902.45814     -154700.74      195.72347      194.58007      990.60593    
     39000  -155536.88      905.35577     -154631.53      195.70655      194.56278      991.02058    
     39100  -155460.18      902.33033     -154557.85      195.68861      194.54359      991.43524    
     39200  -155406.03      912.91269     -154493.12      195.67486      194.53002      991.84989    
     39300  -155340.44      901.44174     -154439         195.66319      194.5165       992.26454    
     39400  -155277.65      902.06118     -154375.59      195.64529      194.49694      992.67919    
     39500  -155199.07      892.19172     -154306.88      195.62882      194.47808      993.09385    
     39600  -155141.3       909.52972     -154231.77      195.61857      194.46547      993.5085     
     39700  -155065.5       908.16743     -154157.33      195.60631      194.45038      993.92315    
     39800  -155006.8       909.70524     -154097.1       195.58873      194.42907      994.33781    
     39900  -154944.3       899.27046     -154045.03      195.5748       194.41138      994.75246    
     40000  -154877.56      900.28697     -153977.28      195.56592      194.39836      995.16711    
     40100  -154803.65      900.94504     -153902.7       195.55282      194.38034      995.58176    
     40200  -154734.11      903.81113     -153830.3       195.53626      194.35913      995.99642    
     40300  -154672.87      907.95081     -153764.92      195.5254       194.34288      996.41107    
     40400  -154604.51      894.94103     -153709.57      195.51684      194.32938      996.82572    
     40500  -154542.48      895.74454     -153646.74      195.50222      194.30934      997.24038    
     40600  -154468.61      894.38032     -153574.23      195.48732      194.28879      997.65503    
     40700  -154402.07      899.17832     -153502.89      195.47925      194.27539      998.06968    
     40800  -154333.39      901.31587     -153432.08      195.47015      194.26001      998.48434    
     40900  -154270.85      908.67099     -153362.18      195.45508      194.23921      998.89899    
     41000  -154202.35      908.85479     -153293.5       195.44256      194.22066      999.31364    
     41100  -154128.67      895.63365     -153233.04      195.43546      194.2075       999.72829    
     41200  -154066.22      893.16837     -153173.05      195.42503      194.191        1000.1429    
     41300  -154009.99      904.79607     -153105.19      195.41066      194.17022      1000.5576    
     41400  -153925.82      899.65558     -153026.16      195.39977      194.15376      1000.9723    
     41500  -153861.21      907.29746     -152953.91      195.39156      194.13957      1001.3869    
     41600  -153793.44      906.35514     -152887.09      195.37969      194.12239      1001.8016    
     41700  -153724.95      902.46958     -152822.48      195.36675      194.10381      1002.2162    
     41800  -153661.51      898.07437     -152763.44      195.35688      194.08868      1002.6309    
     41900  -153590.97      889.7381      -152701.23      195.34682      194.07409      1003.0455    
     42000  -153517.57      895.01633     -152622.56      195.33376      194.05606      1003.4602    
     42100  -153445.92      897.81816     -152548.1       195.32103      194.04007      1003.8748    
     42200  -153379.28      900.33779     -152478.94      195.31183      194.02666      1004.2895    
     42300  -153318.93      906.31535     -152412.62      195.30025      194.01189      1004.7041    
     42400  -153246.85      895.90175     -152350.95      195.28589      193.9946       1005.1188    
     42500  -153187.57      896.60776     -152290.96      195.27364      193.9795       1005.5334    
     42600  -153117.2       895.17356     -152222.03      195.26298      193.9672       1005.9481    
     42700  -153042.18      902.45798     -152139.72      195.25101      193.95246      1006.3627    
     42800  -152972.53      902.85591     -152069.68      195.23634      193.93735      1006.7774    
     42900  -152905.41      898.75784     -152006.65      195.22403      193.92396      1007.192     
     43000  -152840.44      895.37718     -151945.06      195.21287      193.91188      1007.6067    
     43100  -152776.61      897.98973     -151878.62      195.19943      193.89859      1008.0214    
     43200  -152703.53      904.74147     -151798.79      195.18508      193.88415      1008.436     
     43300  -152628.97      906.1022      -151722.87      195.17168      193.87205      1008.8507    
     43400  -152564.48      908.54064     -151655.94      195.16002      193.86031      1009.2653    
     43500  -152497.37      900.09732     -151597.27      195.14592      193.84851      1009.68      
     43600  -152428.7       895.87668     -151532.82      195.13103      193.83544      1010.0946    
     43700  -152364.73      904.11636     -151460.62      195.11752      193.82382      1010.5093    
     43800  -152288.67      900.32937     -151388.34      195.10463      193.81373      1010.9239    
     43900  -152220.98      902.59546     -151318.39      195.0897       193.80135      1011.3386    
     44000  -152148.12      897.46049     -151250.66      195.07406      193.78941      1011.7532    
     44100  -152092.03      907.55736     -151184.47      195.06066      193.7793       1012.1679    
     44200  -152017.6       895.51137     -151122.09      195.0461       193.76895      1012.5825    
     44300  -151955.69      894.62991     -151061.06      195.0298       193.75696      1012.9972    
     44400  -151880.03      895.51153     -150984.52      195.01427      193.74617      1013.4118    
     44500  -151806.48      900.38525     -150906.09      195.0004       193.73713      1013.8265    
     44600  -151736.83      900.9647      -150835.86      194.98502      193.72657      1014.2411    
     44700  -151672.67      902.58815     -150770.08      194.96804      193.71513      1014.6558    
     44800  -151603.64      894.45871     -150709.18      194.95305      193.705        1015.0705    
     44900  -151536.24      892.71209     -150643.53      194.93776      193.69589      1015.4851    
     45000  -151460.51      900.20181     -150560.31      194.92089      193.68472      1015.8998    
     45100  -151390.38      905.26437     -150485.12      194.90474      193.67451      1016.3144    
     45200  -151320.31      902.08396     -150418.23      194.88989      193.66605      1016.7291    
     45300  -151258.68      902.1029      -150356.58      194.87342      193.65558      1017.1437    
     45400  -151192.26      900.0536      -150292.2       194.85524      193.64446      1017.5584    
     45500  -151124.04      902.1501      -150221.89      194.84007      193.63508      1017.973     
     45600  -151042.1       902.85244     -150139.24      194.82519      193.6268       1018.3877    
     45700  -150974.67      908.16402     -150066.51      194.80708      193.61499      1018.8023    
     45800  -150909.76      905.48989     -150004.27      194.7888       193.60243      1019.217     
     45900  -150842.75      900.33477     -149942.42      194.77444      193.59412      1019.6316    
     46000  -150777.03      904.03731     -149872.99      194.76029      193.58476      1020.0463    
     46100  -150706.3       906.78226     -149799.52      194.74198      193.57237      1020.4609    
     46200  -150634.52      911.05832     -149723.46      194.72587      193.56062      1020.8756    
     46300  -150557.5       913.1315      -149644.37      194.71229      193.55208      1021.2902    
     46400  -150491.65      910.47604     -149581.18      194.69702      193.54093      1021.7049    
     46500  -150424.68      903.21144     -149521.47      194.67992      193.52715      1022.1196    
     46600  -150358.63      903.20627     -149455.42      194.66508      193.51641      1022.5342    
     46700  -150284.02      895.66887     -149388.35      194.65296      193.50675      1022.9489    
     46800  -150219.6       903.03675     -149316.57      194.63717      193.49411      1023.3635    
     46900  -150140.32      903.45623     -149236.87      194.62122      193.47944      1023.7782    
     47000  -150068.14      906.06191     -149162.08      194.60868      193.46911      1024.1928    
     47100  -150005.27      905.08774     -149100.19      194.59632      193.4587       1024.6075    
     47200  -149945.46      907.00819     -149038.45      194.58184      193.44436      1025.0221    
     47300  -149870.57      903.24092     -148967.32      194.56705      193.43143      1025.4368    
     47400  -149801.81      907.00231     -148894.81      194.55622      193.42003      1025.8514    
     47500  -149725.92      902.54062     -148823.38      194.54436      193.40854      1026.2661    
     47600  -149664.81      905.32679     -148759.48      194.53089      193.39397      1026.6807    
     47700  -149591.65      895.21325     -148696.44      194.51807      193.38002      1027.0954    
     47800  -149516.8       893.56772     -148623.24      194.50791      193.36894      1027.51      
     47900  -149445.02      904.12145     -148540.9       194.49682      193.35497      1027.9247    
     48000  -149368.14      901.55238     -148466.58      194.48329      193.33946      1028.3393    
     48100  -149305.42      905.1725      -148400.25      194.47302      193.32589      1028.754     
     48200  -149233.95      898.65074     -148335.3       194.46358      193.31321      1029.1687    
     48300  -149162.37      895.38842     -148266.98      194.45192      193.29783      1029.5833    
     48400  -149093.01      898.64329     -148194.37      194.44043      193.28206      1029.998     
     48500  -149020.24      905.69992     -148114.54      194.43087      193.26882      1030.4126    
     48600  -148950.15      909.76945     -148040.38      194.42156      193.25471      1030.8273    
     48700  -148878.21      899.18201     -147979.03      194.40955      193.2386       1031.2419    
     48800  -148813.59      899.71202     -147913.88      194.39917      193.22289      1031.6566    
     48900  -148745.68      901.01406     -147844.67      194.39061      193.20965      1032.0712    
     49000  -148681.21      907.8315      -147773.38      194.38066      193.19474      1032.4859    
     49100  -148603.32      900.06757     -147703.25      194.36872      193.17741      1032.9005    
     49200  -148539.69      902.83475     -147636.86      194.3584       193.1621       1033.3152    
     49300  -148470.7       902.68599     -147568.02      194.35038      193.14841      1033.7298    
     49400  -148391.91      898.96796     -147492.94      194.3398       193.13253      1034.1445    
     49500  -148314.16      902.39169     -147411.77      194.32789      193.1147       1034.5591    
     49600  -148243.75      906.93883     -147336.81      194.31881      193.10015      1034.9738    
     49700  -148180.27      902.54152     -147277.72      194.3116       193.08667      1035.3884    
     49800  -148111.09      900.3156      -147210.78      194.30091      193.07045      1035.8031    
     49900  -148040.57      902.77471     -147137.79      194.28908      193.0528       1036.2178    
     50000  -147968.41      905.60588     -147062.81      194.28084      193.03905      1036.6324    
     50100  -147894.52      905.32885     -146989.19      194.27296      193.02592      1037.0471    
     50200  -147832.23      906.56943     -146925.66      194.26106      193.00852      1037.4617    
     50300  -147759.53      899.13999     -146860.39      194.24858      192.9914       1037.8764    
     50400  -147684.66      898.94752     -146785.71      194.24098      192.9783       1038.291     
     50500  -147612.74      906.03329     -146706.71      194.23225      192.96467      1038.7057    
     50600  -147535.09      911.52646     -146623.57      194.21892      192.94656      1039.1203    
     50700  -147462.78      914.28691     -146548.5       194.2066       192.92966      1039.535     
     50800  -147396.85      905.92605     -146490.93      194.19858      192.91769      1039.9496    
     50900  -147330.01      905.23774     -146424.77      194.18891      192.9037       1040.3643    
     51000  -147257.42      897.08605     -146360.34      194.17511      192.88639      1040.7789    
     51100  -147191.73      901.10658     -146290.62      194.16237      192.87074      1041.1936    
     51200  -147121.46      906.21171     -146215.25      194.15316      192.85851      1041.6082    
     51300  -147042.43      907.34344     -146135.08      194.1422       192.84523      1042.0229    
     51400  -146971.93      912.65832     -146059.27      194.128        192.82858      1042.4375    
     51500  -146897.13      898.7781      -145998.35      194.11412      192.81346      1042.8522    
     51600  -146829.4       898.64225     -145930.76      194.10379      192.80112      1043.2669    
     51700  -146761.58      903.66119     -145857.91      194.09179      192.78813      1043.6815    
     51800  -146684.11      898.56048     -145785.55      194.07627      192.77247      1044.0962    
     51900  -146622.41      902.51612     -145719.9       194.06239      192.75799      1044.5108    
     52000  -146549.72      896.60942     -145653.11      194.05041      192.74692      1044.9255    
     52100  -146478.49      900.09048     -145578.39      194.03703      192.73391      1045.3401    
     52200  -146401.13      906.15878     -145494.97      194.01908      192.71807      1045.7548    
     52300  -146319.85      907.73586     -145412.12      194.00406      192.70417      1046.1694    
     52400  -146256.23      910.05815     -145346.17      193.99154      192.69391      1046.5841    
     52500  -146184.35      904.86452     -145279.49      193.97678      192.68144      1046.9987    
     52600  -146116.08      902.97852     -145213.1       193.95929      192.66609      1047.4134    
     52700  -146046.56      900.5865      -145145.97      193.94327      192.65325      1047.828     
     52800  -145976.75      900.34005     -145076.41      193.93084      192.6427       1048.2427    
     52900  -145912.2       906.61076     -145005.59      193.91483      192.63054      1048.6573    
     53000  -145838.34      898.78213     -144939.56      193.89636      192.61531      1049.072     
     53100  -145770.43      897.10302     -144873.33      193.88072      192.60285      1049.4867    
     53200  -145690.74      898.46641     -144792.28      193.86707      192.59415      1049.9013    
     53300  -145614.87      907.5335      -144707.34      193.85105      192.58067      1050.316     
     53400  -145538.73      905.06846     -144633.66      193.83122      192.56662      1050.7306    
     53500  -145468.59      902.93162     -144565.66      193.8165       192.5547       1051.1453    
     53600  -145397.19      898.38027     -144498.81      193.80216      192.546        1051.5599    
     53700  -145326.66      897.66072     -144429         193.78484      192.53288      1051.9746    
     53800  -145255.75      899.89979     -144355.85      193.76619      192.51836      1052.3892    
     53900  -145178.94      895.35489     -144283.59      193.75053      192.50799      1052.8039    
     54000  -145115.21      893.5595      -144221.66      193.73768      192.49823      1053.2185    
     54100  -145047.39      898.81138     -144148.58      193.71949      192.4857       1053.6332    
     54200  -144968.77      901.36768     -144067.4       193.70112      192.47078      1054.0478    
     54300  -144897.43      911.46619     -143985.96      193.68653      192.46069      1054.4625    
     54400  -144816.09      900.22905     -143915.86      193.6728       192.45162      1054.8771    
     54500  -144751.31      898.92284     -143852.39      193.65518      192.43727      1055.2918    
     54600  -144685.47      908.46656     -143777         193.63652      192.42374      1055.7064    
     54700  -144615.51      914.49165     -143701.02      193.62321      192.41295      1056.1211    
     54800  -144530.84      898.79383     -143632.05      193.60867      192.40308      1056.5358    
     54900  -144465.33      900.42241     -143564.91      193.59097      192.38864      1056.9504    
     55000  -144390.83      901.06339     -143489.77      193.57322      192.37459      1057.3651    
     55100  -144315.39      902.64693     -143412.74      193.55891      192.36392      1057.7797    
     55200  -144250.21      904.98706     -143345.22      193.54428      192.35208      1058.1944    
     55300  -144175.36      897.29221     -143278.07      193.52583      192.33796      1058.609     
     55400  -144104.49      903.74306     -143200.75      193.5102       192.32415      1059.0237    
     55500  -144028.61      907.32139     -143121.29      193.49551      192.3133       1059.4383    
     55600  -143952.75      902.84275     -143049.91      193.48         192.2997       1059.853     
     55700  -143884.44      899.96081     -142984.48      193.46335      192.28564      1060.2676    
     55800  -143805.47      895.91709     -142909.55      193.44794      192.27248      1060.6823    
     55900  -143731.64      898.755       -142832.88      193.43418      192.25963      1061.0969    
     56000  -143664.13      900.49762     -142763.63      193.41816      192.24635      1061.5116    
     56100  -143596.58      901.36055     -142695.22      193.40252      192.23078      1061.9262    
     56200  -143522.22      905.32294     -142616.9       193.38792      192.21809      1062.3409    
     56300  -143443.49      907.30252     -142536.19      193.37465      192.20516      1062.7555    
     56400  -143371.98      903.42475     -142468.56      193.35875      192.18911      1063.1702    
     56500  -143301.26      901.80001     -142399.46      193.34274      192.17428      1063.5849    
     56600  -143228         906.47495     -142321.52      193.33049      192.16037      1063.9995    
     56700  -143152.54      907.27955     -142245.26      193.31547      192.14649      1064.4142    
     56800  -143079.28      903.25805     -142176.02      193.2996       192.12932      1064.8288    
     56900  -143003.02      900.15333     -142102.86      193.28562      192.11418      1065.2435    
     57000  -142928.17      902.46959     -142025.7       193.27229      192.10034      1065.6581    
     57100  -142853.49      902.10464     -141951.38      193.2584       192.08436      1066.0728    
     57200  -142781.92      902.25694     -141879.67      193.24263      192.06766      1066.4874    
     57300  -142707.03      903.24705     -141803.79      193.22917      192.05185      1066.9021    
     57400  -142636.43      907.64595     -141728.78      193.21636      192.03685      1067.3167    
     57500  -142560.54      902.95087     -141657.59      193.20165      192.02019      1067.7314    
     57600  -142486.62      901.02544     -141585.6       193.18726      192.00289      1068.146     
     57700  -142408.12      898.41189     -141509.71      193.17396      191.98752      1068.5607    
     57800  -142342.65      907.9125      -141434.74      193.16069      191.9715       1068.9753    
     57900  -142268.7       904.07392     -141364.63      193.14616      191.95395      1069.39      
     58000  -142192.04      903.69552     -141288.34      193.13191      191.93709      1069.8046    
     58100  -142118.99      909.20393     -141209.78      193.11846      191.92068      1070.2193    
     58200  -142037.7       900.1521      -141137.54      193.10417      191.90367      1070.634     
     58300  -141963.45      897.70746     -141065.74      193.0899       191.88645      1071.0486    
     58400  -141888.99      900.43098     -140988.56      193.07537      191.86908      1071.4633    
     58500  -141816.11      902.90586     -140913.2       193.06111      191.85171      1071.8779    
     58600  -141743.25      904.29306     -140838.96      193.04643      191.83464      1072.2926    
     58700  -141669.07      906.84381     -140762.23      193.03181      191.81626      1072.7072    
     58800  -141589.53      903.94468     -140685.59      193.01693      191.79879      1073.1219    
     58900  -141516.74      904.72013     -140612.02      193.00326      191.78165      1073.5365    
     59000  -141445.74      907.16025     -140538.58      192.98894      191.76426      1073.9512    
     59100  -141367.46      903.1924      -140464.27      192.97424      191.74654      1074.3658    
     59200  -141295.57      905.732       -140389.84      192.95977      191.7288       1074.7805    
     59300  -141225.52      910.28212     -140315.24      192.94536      191.71123      1075.1951    
     59400  -141149.5       910.30685     -140239.19      192.93021      191.69311      1075.6098    
     59500  -141067.52      904.22103     -140163.3       192.91609      191.67581      1076.0244    
     59600  -140991.05      903.86784     -140087.18      192.90141      191.65823      1076.4391    
     59700  -140916.31      905.82188     -140010.48      192.88555      191.64         1076.8537    
     59800  -140838.82      904.42118     -139934.4       192.87155      191.62284      1077.2684    
     59900  -140765.08      907.29563     -139857.78      192.85655      191.60574      1077.6831    
     60000  -140683.09      900.04198     -139783.05      192.84114      191.58776      1078.0977    
     60100  -140617.88      910.56352     -139707.31      192.82601      191.57002      1078.5124    
     60200  -140538.11      905.94343     -139632.17      192.81054      191.5525       1078.927     
     60300  -140460.01      904.881       -139555.13      192.79548      191.53501      1079.3417    
     60400  -140382         902.93578     -139479.07      192.78124      191.51911      1079.7563    
     60500  -140308.67      906.86713     -139401.81      192.76648      191.50174      1080.171     
     60600  -140227.99      903.89279     -139324.09      192.75008      191.48383      1080.5856    
     60700  -140153.17      906.13274     -139247.04      192.73522      191.46704      1081.0003    
     60800  -140080.29      911.45529     -139168.84      192.72127      191.45127      1081.4149    
     60900  -139996.52      906.62819     -139089.89      192.70504      191.43374      1081.8296    
     61000  -139913.74      901.68664     -139012.05      192.68855      191.41592      1082.2442    
     61100  -139839.41      905.33972     -138934.07      192.67368      191.40009      1082.6589    
     61200  -139772.09      915.17578     -138856.92      192.65839      191.38404      1083.0735    
     61300  -139685.59      906.92457     -138778.66      192.64127      191.36625      1083.4882    
     61400  -139603.56      901.54367     -138702.02      192.62478      191.34963      1083.9028    
     61500  -139527.35      903.56177     -138623.79      192.60991      191.33401      1084.3175    
     61600  -139451.95      906.23        -138545.72      192.59349      191.31837      1084.7322    
     61700  -139372.44      906.07818     -138466.36      192.57613      191.30056      1085.1468    
     61800  -139297.23      910.78326     -138386.45      192.55852      191.28395      1085.5615    
     61900  -139210.19      903.59454     -138306.6       192.54289      191.26923      1085.9761    
     62000  -139134.24      906.60603     -138227.63      192.52743      191.25357      1086.3908    
     62100  -139058.19      909.48308     -138148.71      192.50882      191.23703      1086.8054    
     62200  -138978.59      909.15761     -138069.43      192.49219      191.2207       1087.2201    
     62300  -138894.5       905.84471     -137988.65      192.47689      191.20669      1087.6347    
     62400  -138813.83      904.52577     -137909.31      192.45892      191.19051      1088.0494    
     62500  -138733.23      903.9373      -137829.3       192.44072      191.17308      1088.464     
     62600  -138653.02      904.56017     -137748.46      192.42423      191.15929      1088.8787    
     62700  -138576.57      907.62413     -137668.94      192.40812      191.14424      1089.2933    
     62800  -138485.85      898.36981     -137587.48      192.39024      191.12809      1089.708     
     62900  -138415.12      908.61289     -137506.51      192.37151      191.11217      1090.1226    
     63000  -138335.15      910.79844     -137424.35      192.35485      191.09659      1090.5373    
     63100  -138251.99      910.39761     -137341.59      192.3372       191.08175      1090.9519    
     63200  -138158.94      900.07945     -137258.86      192.31803      191.06504      1091.3666    
     63300  -138081.44      906.11658     -137175.32      192.30113      191.04956      1091.7813    
     63400  -138005.89      913.62817     -137092.26      192.28391      191.03585      1092.1959    
     63500  -137921.68      911.62346     -137010.06      192.26579      191.01969      1092.6106    
     63600  -137833.43      904.73663     -136928.7       192.24744      191.0039       1093.0252    
     63700  -137751.29      905.46425     -136845.83      192.22987      190.98941      1093.4399    
     63800  -137669.96      906.62115     -136763.34      192.21177      190.97394      1093.8545    
     63900  -137584.2       904.49171     -136679.71      192.19298      190.95783      1094.2692    
     64000  -137501.69      907.08985     -136594.6       192.17505      190.94309      1094.6838    
     64100  -137413.08      903.77289     -136509.31      192.15642      190.92737      1095.0985    
     64200  -137332.64      908.0513      -136424.58      192.13753      190.91183      1095.5131    
     64300  -137246.04      907.74561     -136338.3       192.11933      190.89683      1095.9278    
     64400  -137162.66      910.61376     -136252.05      192.10038      190.88064      1096.3424    
     64500  -137069.14      904.2528      -136164.88      192.08092      190.86477      1096.7571    
     64600  -136982.65      904.71662     -136077.93      192.06287      190.84999      1097.1717    
     64700  -136904.92      912.44433     -135992.48      192.04416      190.8341       1097.5864    
     64800  -136814.27      907.79262     -135906.47      192.02494      190.81797      1098.001     
     64900  -136731.62      912.15729     -135819.46      192.00653      190.80208      1098.4157    
     65000  -136644.68      911.52039     -135733.16      191.98828      190.78666      1098.8304    
     65100  -136559.78      912.94453     -135646.84      191.96947      190.77045      1099.245     
     65200  -136463.07      903.93467     -135559.14      191.95123      190.75445      1099.6597    
     65300  -136377.59      906.4435      -135471.15      191.93289      190.73874      1100.0743    
     65400  -136288.35      905.46109     -135382.89      191.91432      190.72244      1100.489     
     65500  -136202.19      908.65407     -135293.54      191.89509      190.70502      1100.9036    
     65600  -136110.8       906.05388     -135204.75      191.87686      190.68924      1101.3183    
     65700  -136018.16      903.73176     -135114.43      191.8596       190.67341      1101.7329    
     65800  -135925.1       900.17795     -135024.92      191.84054      190.65594      1102.1476    
     65900  -135840.81      906.34066     -134934.47      191.82192      190.63882      1102.5622    
     66000  -135751.46      908.56599     -134842.9       191.80511      190.62311      1102.9769    
     66100  -135666.24      914.15315     -134752.09      191.7875       190.60673      1103.3915    
     66200  -135568.24      909.13785     -134659.1       191.76894      190.58903      1103.8062    
     66300  -135473.81      906.95642     -134566.86      191.75124      190.57189      1104.2208    
     66400  -135379.71      905.72592     -134473.99      191.73464      190.55585      1104.6355    
     66500  -135285.88      903.18782     -134382.69      191.71783      190.53914      1105.0501    
     66600  -135195.59      906.08103     -134289.51      191.6999       190.52131      1105.4648    
     66700  -135104.87      908.90077     -134195.97      191.68244      190.50375      1105.8795    
     66800  -135015.96      914.67752     -134101.28      191.6664       190.48725      1106.2941    
     66900  -134910.96      903.75743     -134007.2       191.64957      190.46983      1106.7088    
     67000  -134816.75      904.50959     -133912.24      191.63132      190.45147      1107.1234    
     67100  -134728.5       910.63326     -133817.86      191.61523      190.43451      1107.5381    
     67200  -134634.34      912.41147     -133721.93      191.59969      190.41764      1107.9527    
     67300  -134535.87      910.04584     -133625.83      191.58179      190.39904      1108.3674    
     67400  -134441.13      912.13381     -133529         191.56509      190.38081      1108.782     
     67500  -134343.25      911.67691     -133431.57      191.55016      190.36463      1109.1967    
     67600  -134243.29      908.10685     -133335.18      191.53314      190.34628      1109.6113    
     67700  -134142.96      905.73379     -133237.22      191.51637      190.32732      1110.026     
     67800  -134047.63      908.48907     -133139.14      191.50119      190.311        1110.4406    
     67900  -133947.22      907.39421     -133039.83      191.48522      190.29254      1110.8553    
     68000  -133855.66      912.89069     -132942.77      191.46751      190.27283      1111.2699    
     68100  -133753.92      911.12346     -132842.8       191.45291      190.25668      1111.6846    
     68200  -133653.57      910.16978     -132743.4       191.43834      190.23947      1112.0992    
     68300  -133553.98      910.82114     -132643.16      191.42011      190.2196       1112.5139    
     68400  -133456.22      915.04832     -132541.17      191.40442      190.20149      1112.9286    
     68500  -133346.38      906.41616     -132439.96      191.38999      190.18454      1113.3432    
     68600  -133253.6       915.74133     -132337.86      191.37352      190.16644      1113.7579    
     68700  -133145.45      910.23333     -132235.22      191.35691      190.1469       1114.1725    
     68800  -133048.61      915.33189     -132133.28      191.34174      190.12934      1114.5872    
     68900  -132943.9       913.1758      -132030.72      191.32657      190.11211      1115.0018    
     69000  -132836.24      909.31106     -131926.93      191.31046      190.0929       1115.4165    
     69100  -132734.77      911.94079     -131822.83      191.29392      190.07428      1115.8311    
     69200  -132634.15      915.15364     -131718.99      191.27935      190.05722      1116.2458    
     69300  -132524.12      910.3031      -131613.82      191.26427      190.03905      1116.6604    
     69400  -132422.1       912.01364     -131510.09      191.24719      190.02045      1117.0751    
     69500  -132316.58      911.30555     -131405.27      191.23138      190.00222      1117.4897    
     69600  -132218.47      920.34969     -131298.12      191.21663      189.98501      1117.9044    
     69700  -132103.89      913.02912     -131190.86      191.20014      189.96714      1118.319     
     69800  -132005.37      923.34569     -131082.03      191.18296      189.94759      1118.7337    
     69900  -131890.42      915.61377     -130974.81      191.16762      189.93035      1119.1483    
     70000  -131784.39      918.28809     -130866.1       191.15274      189.91407      1119.563     
     70100  -131674.87      916.14438     -130758.72      191.13573      189.89474      1119.9777    
     70200  -131566.56      916.08219     -130650.48      191.11847      189.87629      1120.3923    
     70300  -131458.23      918.9432      -130539.29      191.10334      189.8597       1120.807     
     70400  -131351.68      921.08382     -130430.59      191.08749      189.84205      1121.2216    
     70500  -131242         920.9292      -130321.07      191.06965      189.82351      1121.6363    
     70600  -131122.53      913.54345     -130208.99      191.05368      189.80608      1122.0509    
     70700  -131026.82      929.17011     -130097.65      191.03806      189.78943      1122.4656    
     70800  -130903.83      916.18762     -129987.64      191.02053      189.77134      1122.8802    
     70900  -130802.82      926.51866     -129876.3       191.00317      189.75285      1123.2949    
     71000  -130689.01      926.14141     -129762.86      190.98725      189.73652      1123.7095    
     71100  -130577.15      926.71205     -129650.43      190.97064      189.7194       1124.1242    
     71200  -130463.61      927.29487     -129536.31      190.95287      189.70091      1124.5388    
     71300  -130343.59      927.05815     -129416.54      190.93609      189.68446      1124.9535    
     71400  -130233.55      930.35615     -129303.19      190.92028      189.66801      1125.3681    
     71500  -130118.95      931.45388     -129187.49      190.90242      189.65017      1125.7828    
     71600  -130002.52      932.40633     -129070.12      190.88459      189.63271      1126.1974    
     71700  -129884.93      930.115       -128954.82      190.86904      189.61646      1126.6121    
     71800  -129772.97      933.91114     -128839.06      190.85198      189.60002      1127.0268    
     71900  -129653.88      932.24879     -128721.63      190.83383      189.58222      1127.4414    
     72000  -129537.61      935.23826     -128602.37      190.81719      189.56544      1127.8561    
     72100  -129415.1       929.89018     -128485.21      190.80039      189.54979      1128.2707    
     72200  -129308.19      944.3062      -128363.89      190.78294      189.5322       1128.6854    
     72300  -129185.38      944.71059     -128240.67      190.765        189.5152       1129.1       
     72400  -129074.38      952.12281     -128122.26      190.74817      189.4992       1129.5147    
     72500  -128951.46      950.42781     -128001.04      190.73145      189.4827       1129.9293    
     72600  -128825.7       948.65443     -127877.04      190.7132       189.46574      1130.344     
[...]
     81600  -152797.36      1182.2817     -151615.08      190.64019      189.39902      1167.6627    
     81700  -153183.17      1173.0133     -152010.16      190.66822      189.42637      1168.0774    
     81800  -153562.79      1164.6064     -152398.19      190.69536      189.45289      1168.4921    
     81900  -153936.17      1156.6069     -152779.56      190.72154      189.47852      1168.9067    
     82000  -154303.49      1148.9378     -153154.56      190.74685      189.50336      1169.3214    
     82100  -154665.1       1141.6103     -153523.49      190.77135      189.52744      1169.736     
     82200  -155021.14      1134.5008     -153886.64      190.79495      189.55069      1170.1507    
     82300  -155372.06      1127.754      -154244.3       190.81768      189.57313      1170.5653    
     82400  -155718.33      1121.5469     -154596.78      190.83965      189.59484      1170.98      
     82500  -156060.24      1115.98       -154944.26      190.86086      189.61587      1171.3946    
     82600  -156397.34      1110.374      -155286.96      190.88133      189.63626      1171.8093    
     82700  -156730.06      1104.9522     -155625.11      190.90122      189.65607      1172.2239    
     82800  -157058.91      1100.0293     -155958.88      190.92049      189.6753       1172.6386    
     82900  -157384.19      1095.7032     -156288.49      190.93913      189.69395      1173.0532    
     83000  -157704.81      1090.6795     -156614.13      190.9571       189.71197      1173.4679    
     83100  -158021.75      1085.7631     -156935.99      190.97453      189.72948      1173.8825    
     83200  -158336.23      1081.9634     -157254.27      190.99143      189.74653      1174.2972    
     83300  -158648.29      1079.1075     -157569.18      191.00774      189.76304      1174.7118    
     83400  -158956.98      1076.0495     -157880.93      191.02357      189.77911      1175.1265    
     83500  -159262.13      1072.4474     -158189.69      191.03897      189.79482      1175.5412    
     83600  -159564.5       1068.8434     -158495.65      191.05398      189.81017      1175.9558    
     83700  -159864.56      1065.5537     -158799         191.06859      189.82515      1176.3705    
     83800  -160162.53      1062.6501     -159099.88      191.08287      189.83984      1176.7851    
     83900  -160458.52      1060.1066     -159398.41      191.09686      189.85427      1177.1998    
     84000  -160752.45      1057.7609     -159694.69      191.11053      189.86842      1177.6144    
     84100  -161044.21      1055.4166     -159988.79      191.12389      189.88229      1178.0291    
     84200  -161333.67      1052.8876     -160280.78      191.13693      189.89587      1178.4437    
     84300  -161620.91      1050.2138     -160570.69      191.1496       189.90912      1178.8584    
     84400  -161906.24      1047.6783     -160858.56      191.16188      189.92199      1179.273     
     84500  -162189.79      1045.3943     -161144.39      191.17379      189.93453      1179.6877    
     84600  -162471.45      1043.223      -161428.23      191.18538      189.94676      1180.1023    
     84700  -162751.03      1040.9022     -161710.13      191.19669      189.95875      1180.517     
     84800  -163028.67      1038.5285     -161990.14      191.20774      189.9705       1180.9316    
     84900  -163304.83      1036.4844     -162268.35      191.21851      189.982        1181.3463    
     85000  -163579.87      1035.0661     -162544.81      191.229        189.99322      1181.7609    
     85100  -163853.35      1033.7581     -162819.59      191.2393       190.00427      1182.1756    
     85200  -164124.32      1031.5229     -163092.8       191.24947      190.01521      1182.5903    
     85300  -164393.51      1028.9971     -163364.51      191.25941      190.02594      1183.0049    
     85400  -164662.86      1028.1143     -163634.74      191.26908      190.03641      1183.4196    
     85500  -164930.44      1026.9349     -163903.51      191.2785       190.04665      1183.8342    
     85600  -165195.26      1024.4655     -164170.8       191.28776      190.05674      1184.2489    
     85700  -165459.45      1022.7392     -164436.71      191.29689      190.06673      1184.6635    
     85800  -165723.6       1022.3335     -164701.27      191.30582      190.07652      1185.0782    
     85900  -165980.37      1016.7564     -164963.61      191.31457      190.08614      1185.4928    
     86000  -166232.89      1011.9819     -165220.91      191.32348      190.09596      1185.9075    
     86100  -166479.26      1006.6134     -165472.65      191.33251      190.10587      1186.3221    
     86200  -166721.19      1002.0014     -165719.19      191.34134      190.11561      1186.7368    
     86300  -166957.9       997.19444     -165960.7       191.35011      190.1253       1187.1514    
     86400  -167190.13      992.875       -166197.26      191.35906      190.13517      1187.5661    
     86500  -167417.22      988.37253     -166428.85      191.36801      190.14505      1187.9807    
     86600  -167638.86      983.43079     -166655.43      191.37687      190.15484      1188.3954    
     86700  -167856.36      979.39383     -166876.97      191.38583      190.16475      1188.81      
     86800  -168068.05      974.64745     -167093.41      191.39494      190.17482      1189.2247    
     86900  -168275.03      970.34991     -167304.68      191.40405      190.18487      1189.6394    
     87000  -168476.74      966.0228      -167510.72      191.41319      190.19496      1190.054     
     87100  -168673.22      961.76713     -167711.46      191.42251      190.20524      1190.4687    
     87200  -168864.42      957.60786     -167906.81      191.43192      190.21562      1190.8833    
     87300  -169050.01      953.35759     -168096.66      191.44138      190.22605      1191.298     
     87400  -169230.22      949.29399     -168280.93      191.45101      190.23665      1191.7126    
     87500  -169404.72      945.19863     -168459.52      191.46085      190.24749      1192.1273    
     87600  -169573.6       941.25311     -168632.34      191.47081      190.25843      1192.5419    
     87700  -169736.7       937.36953     -168799.33      191.48092      190.26953      1192.9566    
     87800  -169893.86      933.55472     -168960.3       191.4913       190.2809       1193.3712    
     87900  -170044.99      929.8739      -169115.11      191.5019       190.29249      1193.7859    
     88000  -170189.92      926.29973     -169263.62      191.51266      190.30425      1194.2005    
     88100  -170328.52      922.84652     -169405.67      191.52371      190.3163       1194.6152    
     88200  -170460.59      919.51133     -169541.08      191.53503      190.32863      1195.0298    
     88300  -170585.96      916.33528     -169669.62      191.54659      190.34121      1195.4445    
     88400  -170704.44      913.36075     -169791.08      191.55846      190.35412      1195.8591    
     88500  -170815.94      910.6732      -169905.27      191.57058      190.36727      1196.2738    
     88600  -170920.49      908.39467     -170012.1       191.58268      190.38046      1196.6885    
     88700  -171018.36      906.6211      -170111.74      191.59482      190.39375      1197.1031    
     88800  -171109.46      904.93281     -170204.53      191.60708      190.40719      1197.5178    
     88900  -171193.63      903.21347     -170290.42      191.61936      190.42068      1197.9324    
     89000  -171270.78      901.75698     -170369.03      191.63173      190.43428      1198.3471    
     89100  -171341.14      900.96242     -170440.18      191.6442       190.44797      1198.7617    
     89200  -171404.56      900.05543     -170504.51      191.65689      190.46186      1199.1764    
     89300  -171460.35      898.64352     -170561.71      191.6698       190.47599      1199.591     
     89400  -171509.02      898.28749     -170610.73      191.68283      190.49032      1200.0057    
     89500  -171550.28      898.41075     -170651.87      191.69607      190.50483      1200.4203    
     89600  -171584.36      898.30703     -170686.05      191.70946      190.51953      1200.835     
     89700  -171610.87      897.46133     -170713.41      191.72295      190.53436      1201.2496    
     89800  -171630.08      897.15991     -170732.92      191.73652      190.54935      1201.6643    
     89900  -171641.73      897.55706     -170744.18      191.75027      190.5645       1202.0789    
     90000  -171646.09      898.13529     -170747.95      191.76406      190.57984      1202.4936    
     90100  -171642.81      897.66564     -170745.15      191.77793      190.59524      1202.9082    
     90200  -171631.52      896.55724     -170734.97      191.79102      190.60984      1203.3229    
     90300  -171611.61      896.03283     -170715.57      191.80284      190.62333      1203.7376    
     90400  -171582.57      896.34417     -170686.22      191.81453      190.63673      1204.1522    
     90500  -171544.02      896.24536     -170647.78      191.82621      190.6501       1204.5669    
     90600  -171495.73      894.88563     -170600.84      191.83689      190.66252      1204.9815    
     90700  -171437.28      892.99868     -170544.29      191.84735      190.67469      1205.3962    
     90800  -171368.11      891.4076      -170476.7       191.85791      190.68685      1205.8108    
     90900  -171288.02      889.82467     -170398.19      191.86754      190.698        1206.2255    
     91000  -171196.84      887.21492     -170309.62      191.877        190.70889      1206.6401    
     91100  -171094.54      883.41181     -170211.13      191.88683      190.72007      1207.0548    
     91200  -170981.28      878.96836     -170102.31      191.89582      190.73039      1207.4694    
     91300  -170857.3       874.08504     -169983.22      191.90466      190.74039      1207.8841    
     91400  -170723.25      868.63009     -169854.62      191.91401      190.75064      1208.2987    
     91500  -170579.82      862.40963     -169717.41      191.92241      190.75987      1208.7134    
     91600  -170432.62      860.2624      -169572.36      191.93047      190.7686       1209.128     
     91700  -170319.76      895.95784     -169423.8       191.9386       190.77738      1209.5427    
     91800  -170283.89      959.43974     -169324.45      191.93505      190.77383      1209.9573    
     91900  -170281.21      922.99017     -169358.22      191.90227      190.74143      1210.372     
     92000  -170322.05      884.94963     -169437.1       191.8884       190.72721      1210.7867    
     92100  -170386.81      899.4192      -169487.39      191.88525      190.72578      1211.2013    
     92200  -170465.6       928.63408     -169536.97      191.88361      190.72355      1211.616     
     92300  -170533.22      905.78863     -169627.43      191.86262      190.70626      1212.0306    
     92400  -170567.79      866.60284     -169701.19      191.84129      190.68587      1212.4453    
     92500  -170598.17      877.71308     -169720.45      191.83107      190.67408      1212.8599    
     92600  -170597.72      899.33738     -169698.38      191.82679      190.67303      1213.2746    
     92700  -170576.93      915.80346     -169661.12      191.82485      190.67254      1213.6892    
     92800  -170550.6       912.0278      -169638.57      191.83063      190.68119      1214.1039    
     92900  -170543.9       904.13897     -169639.77      191.83288      190.68635      1214.5185    
     93000  -170543.72      906.55754     -169637.16      191.82241      190.67929      1214.9332    
     93100  -170514.63      885.55269     -169629.07      191.81269      190.67261      1215.3478    
     93200  -170512.04      902.92412     -169609.11      191.81486      190.67467      1215.7625    
     93300  -170504.95      911.47024     -169593.48      191.81906      190.68422      1216.1771    
     93400  -170504.93      906.85208     -169598.08      191.83179      190.69741      1216.5918    
     93500  -170519.2       899.57942     -169619.62      191.84309      190.70868      1217.0064    
     93600  -170534.51      891.15499     -169643.35      191.85639      190.71853      1217.4211    
     93700  -170521.16      878.39689     -169642.77      191.86268      190.71804      1217.8358    
     93800  -170513.25      909.13202     -169604.12      191.86682      190.70726      1218.2504    
     93900  -170519.54      934.37591     -169585.17      191.87081      190.69731      1218.6651    
     94000  -170532.35      909.71882     -169622.63      191.87643      190.69318      1219.0797    
     94100  -170568.45      890.6436      -169677.8       191.8844       190.69372      1219.4944    
     94200  -170599.32      881.51669     -169717.81      191.89821      190.70233      1219.909     
     94300  -170633.37      899.64895     -169733.72      191.90983      190.71191      1220.3237    
     94400  -170628.14      889.82347     -169738.31      191.91507      190.71422      1220.7383    
     94500  -170605.22      884.5958      -169720.62      191.91621      190.71766      1221.153     
     94600  -170581.47      902.32945     -169679.14      191.92119      190.72667      1221.5676    
     94700  -170568.26      924.10132     -169644.16      191.92902      190.73774      1221.9823    
     94800  -170562.83      916.67201     -169646.16      191.9317       190.74343      1222.3969    
     94900  -170546.57      879.44032     -169667.13      191.93456      190.74239      1222.8116    
     95000  -170536.41      879.08434     -169657.32      191.94518      190.74454      1223.2262    
     95100  -170526.86      911.12845     -169615.73      191.95884      190.75031      1223.6409    
     95200  -170518.63      924.69773     -169593.93      191.97497      190.75793      1224.0555    
     95300  -170510.49      904.0813      -169606.41      191.98701      190.7659       1224.4702    
     95400  -170520.05      900.19557     -169619.85      191.99737      190.77052      1224.8849    
     95500  -170531.88      905.24901     -169626.63      192.01042      190.78168      1225.2995    
     95600  -170528.43      900.51248     -169627.92      192.02337      190.79447      1225.7142    
     95700  -170529.27      899.92465     -169629.35      192.03895      190.80472      1226.1288    
     95800  -170541.28      903.00946     -169638.27      192.05775      190.81603      1226.5435    
     95900  -170544.54      897.40183     -169647.13      192.0739       190.82187      1226.9581    
     96000  -170558.03      904.73537     -169653.3       192.09645      190.83444      1227.3728    
     96100  -170564.42      899.41734     -169665         192.12354      190.85173      1227.7874    
     96200  -170567.85      896.59188     -169671.25      192.14054      190.86078      1228.2021    
     96300  -170570.64      899.99804     -169670.64      192.15766      190.87441      1228.6167    
     96400  -170575.41      908.01173     -169667.4       192.18639      190.89345      1229.0314    
     96500  -170578.39      907.89015     -169670.5       192.21214      190.90512      1229.446     
     96600  -170581.6       895.12358     -169686.48      192.22518      190.91241      1229.8607    
     96700  -170600.19      900.68225     -169699.51      192.24011      190.92233      1230.2753    
     96800  -170601.03      897.03334     -169703.99      192.26521      190.9338       1230.69      
     96900  -170602.75      902.93615     -169699.81      192.28312      190.94         1231.1046    
     97000  -170597.14      902.25259     -169694.89      192.29391      190.94972      1231.5193    
     97100  -170596.99      901.42442     -169695.57      192.31329      190.95776      1231.934     
     97200  -170615.06      912.20071     -169702.86      192.33907      190.96567      1232.3486    
     97300  -170619.6       898.47805     -169721.12      192.3581       190.97739      1232.7633    
     97400  -170628.26      891.88072     -169736.38      192.36919      190.98879      1233.1779    
     97500  -170634.66      894.41721     -169740.24      192.38304      191.00538      1233.5926    
     97600  -170630.72      894.83326     -169735.88      192.40124      191.02958      1234.0072    
     97700  -170626.72      903.73558     -169722.98      192.41231      191.05053      1234.4219    
     97800  -170628.02      912.39518     -169715.63      192.41832      191.07059      1234.8365    
     97900  -170627.72      903.15231     -169724.56      192.42565      191.08968      1235.2512    
     98000  -170642.64      895.84163     -169746.8       192.43725      191.1121       1235.6658    
     98100  -170645.64      887.14136     -169758.5       192.44774      191.13557      1236.0805    
     98200  -170640.63      895.92385     -169744.71      192.45749      191.15588      1236.4951    
     98300  -170625.73      906.1495      -169719.59      192.4672       191.17845      1236.9098    
     98400  -170619.18      908.82665     -169710.36      192.47935      191.20304      1237.3244    
     98500  -170637.65      909.08448     -169728.56      192.48697      191.22092      1237.7391    
     98600  -170639.89      885.16339     -169754.73      192.4967       191.23486      1238.1537    
     98700  -170633.79      882.16823     -169751.63      192.50608      191.25321      1238.5684    
     98800  -170620.72      905.80382     -169714.92      192.51596      191.27234      1238.9831    
     98900  -170613.58      927.89345     -169685.69      192.5244       191.28608      1239.3977    
     99000  -170613.26      913.37845     -169699.89      192.53254      191.29401      1239.8124    
     99100  -170622.36      890.21441     -169732.15      192.54424      191.30133      1240.227     
     99200  -170624.8       882.65154     -169742.15      192.553        191.3113       1240.6417    
     99300  -170613.84      899.57495     -169714.27      192.562        191.32269      1241.0563    
     99400  -170599.7       921.82234     -169677.88      192.57027      191.33496      1241.471     
     99500  -170588.33      911.17913     -169677.15      192.57535      191.33982      1241.8856    
     99600  -170601.67      894.88443     -169706.78      192.57906      191.34364      1242.3003    
     99700  -170625.03      890.75157     -169734.28      192.58446      191.35455      1242.7149    
     99800  -170624.42      889.79116     -169734.63      192.59402      191.36964      1243.1296    
     99900  -170614.91      905.21128     -169709.7       192.60406      191.38472      1243.5442    
    100000  -170612.8       921.68688     -169691.11      192.6144       191.40241      1243.9589    
Loop time of 31143.7 on 16 procs for 100000 steps with 23256 atoms

Performance: 0.277 ns/day, 86.510 hours/ns, 3.211 timesteps/s, 74.673 katom-step/s
48.0% CPU use with 16 MPI tasks x 1 OpenMP threads

MPI task timing breakdown:
Section |  min time  |  avg time  |  max time  |%varavg| %total
---------------------------------------------------------------
Pair    | 3239.6     | 4256.1     | 4973.9     | 784.1 | 13.67
Neigh   | 7.913      | 17.633     | 23.914     | 122.2 |  0.06
Comm    | 2717.8     | 3396.4     | 4244.7     | 803.9 | 10.91
Output  | 92.298     | 95.791     | 99.307     |  20.0 |  0.31
Modify  | 20377      | 20696      | 21196      | 153.8 | 66.45
Other   |            | 2682       |            |       |  8.61

Nlocal:         1453.5 ave        2808 max           0 min
Histogram: 4 2 0 0 0 0 3 2 2 3
Nghost:        1796.81 ave        3093 max           0 min
Histogram: 4 0 2 0 0 0 1 1 3 5
Neighs:              0 ave           0 max           0 min
Histogram: 16 0 0 0 0 0 0 0 0 0

Total # of neighbors = 0
Ave neighs/atom = 0
Neighbor list builds = 695
Dangerous builds = 0
Total wall time: 8:39:14
