LAMMPS (2 Aug 2023 - Update 3)
OMP_NUM_THREADS environment is not set. Defaulting to 1 thread. (src/comm.cpp:98)
  using 1 OpenMP thread(s) per MPI task
Reading data file ...
  orthogonal box = (-100 -100 -2.331251) to (100 100 38.891558)
  3 by 4 by 1 MPI processor grid
  reading atoms ...
  920 atoms
  read_data CPU = 0.304 seconds
Replication is creating a 1x1x19 = 19 times larger system...
  orthogonal box = (-100 -100 -2.331251) to (100 100 780.90212)
  1 by 2 by 6 MPI processor grid
  17480 atoms
  replicate CPU = 0.256 seconds
4560 atoms in group SR
Deleted 4560 atoms, new total = 12920
System init for write_data ...
WARNING: Communication cutoff is 0.0. No ghost atoms will be generated. Atoms may get lost. (src/comm_brick.cpp:210)
Reading airebo potential file CH.airebo with DATE: 2011-10-25
Reading airebo potential file CH.airebo with DATE: 2011-10-25
Neighbor list info ...
  update: every = 1 steps, delay = 0 steps, check = yes
  max neighbors/atom: 2000, page size: 100000
  master list distance cutoff = 13.2
  ghost atom cutoff = 13.2
  binsize = 6.6, bins = 31 31 119
  5 neighbor lists, perpetual/occasional/extra = 5 0 0
  (1) pair airebo, perpetual, skip from (4)
      attributes: full, newton on, ghost
      pair build: skip/ghost
      stencil: none
      bin: none
  (2) pair airebo, perpetual, skip from (4)
      attributes: full, newton on, ghost
      pair build: skip/ghost
      stencil: none
      bin: none
  (3) pair lj/cut, perpetual, skip from (5)
      attributes: half, newton on, cut 13
      pair build: skip
      stencil: none
      bin: none
  (4) neighbor class addition, perpetual
      attributes: full, newton on, ghost
      pair build: full/bin/ghost
      stencil: full/ghost/bin/3d
      bin: standard
  (5) neighbor class addition, perpetual
      attributes: half, newton on, cut 13
      pair build: half/bin/atomonly/newton
      stencil: half/bin/3d
      bin: standard
Setting up sd style minimization ...
  Unit style    : metal
  Current step  : 0
Per MPI rank memory allocation (min/avg/max) = 11.42 | 11.43 | 11.43 Mbytes
   Step          Temp          E_pair         E_mol          TotEng         Press     
         0   0             -95602.505      0             -95602.505     -0.21847277   
         1   0             -95602.964      0             -95602.964     -0.39920433   
Loop time of 0.431664 on 12 procs for 1 steps with 12920 atoms

51.5% CPU use with 12 MPI tasks x 1 OpenMP threads

Minimization stats:
  Stopping criterion = energy tolerance
  Energy initial, next-to-last, final = 
     -95602.5051543506  -95602.5051543506   -95602.963797322
  Force two-norm initial, final = 11.162587 1.0696616
  Force max component initial, final = 0.098019031 0.0093756234
  Final line search alpha, max atom move = 1 0.0093756234
  Iterations, force evaluations = 1 2

MPI task timing breakdown:
Section |  min time  |  avg time  |  max time  |%varavg| %total
---------------------------------------------------------------
Pair    | 0.052639   | 0.071696   | 0.11083    |   5.6 | 16.61
Neigh   | 0          | 0          | 0          |   0.0 |  0.00
Comm    | 0.040332   | 0.071695   | 0.09744    |   7.3 | 16.61
Output  | 0          | 0          | 0          |   0.0 |  0.00
Modify  | 0          | 0          | 0          |   0.0 |  0.00
Other   |            | 0.2883     |            |       | 66.78

Nlocal:        1076.67 ave        1134 max        1016 min
Histogram: 6 0 0 0 0 0 0 0 0 6
Nghost:           1510 ave        1574 max        1446 min
Histogram: 4 2 0 0 0 0 0 0 2 4
Neighs:              0 ave           0 max           0 min
Histogram: 12 0 0 0 0 0 0 0 0 0

Total # of neighbors = 0
Ave neighs/atom = 0
Neighbor list builds = 0
Dangerous builds = 0
Setting up Verlet run ...
  Unit style    : metal
  Current step  : 1
  Time step     : 0.001
Per MPI rank memory allocation (min/avg/max) = 12.05 | 12.05 | 12.06 Mbytes
   Step          Temp          E_pair         E_mol          TotEng         Press          Volume    
         1   300           -95602.964      0             -95101.99       16.680593      31329335     
Loop time of 0.0206627 on 12 procs for 0 steps with 12920 atoms

45.1% CPU use with 12 MPI tasks x 1 OpenMP threads

MPI task timing breakdown:
Section |  min time  |  avg time  |  max time  |%varavg| %total
---------------------------------------------------------------
Pair    | 0          | 0          | 0          |   0.0 |  0.00
Neigh   | 0          | 0          | 0          |   0.0 |  0.00
Comm    | 0          | 0          | 0          |   0.0 |  0.00
Output  | 0          | 0          | 0          |   0.0 |  0.00
Modify  | 0          | 0          | 0          |   0.0 |  0.00
Other   |            | 0.02066    |            |       |100.00

Nlocal:        1076.67 ave        1080 max        1070 min
Histogram: 4 0 0 0 0 0 0 0 0 8
Nghost:           1510 ave        1520 max        1500 min
Histogram: 4 0 0 0 0 4 0 0 0 4
Neighs:              0 ave           0 max           0 min
Histogram: 12 0 0 0 0 0 0 0 0 0

Total # of neighbors = 0
Ave neighs/atom = 0
Neighbor list builds = 0
Dangerous builds = 0
WARNING: New thermo_style command, previous thermo_modify settings will be lost (src/output.cpp:903)
WARNING: Dump 2 includes no atom IDs and is not sorted by ID. This may complicate post-processing tasks or visualization (src/dump.cpp:221)
Setting up Verlet run ...
  Unit style    : metal
  Current step  : 0
  Time step     : 0.001
Per MPI rank memory allocation (min/avg/max) = 13.55 | 13.55 | 13.56 Mbytes
   Step         PotEng         KinEng         TotEng           Lx             Ly             Lz      
         0  -95602.964      500.97354     -95101.99       200            200            783.23337    
       100  -95315.926      249.03141     -95066.895      200.00565      200.00555      783.62499    
       200  -95327.489      308.91038     -95018.579      200.00278      200.00272      784.0166     
       300  -95286.712      325.45272     -94961.259      200.00897      200.00905      784.40822    
       400  -95245.362      347.34108     -94898.021      200.00556      200.00606      784.79984    
       500  -95218.109      387.07606     -94831.033      200.01214      200.01336      785.19145    
       600  -95179.93       417.04763     -94762.883      200.00657      200.00886      785.58307    
       700  -95151.859      454.66667     -94697.192      200.01383      200.01759      785.97469    
       800  -95117.888      479.53933     -94638.349      200.00781      200.01314      786.3663     
       900  -95102.109      509.46603     -94592.643      200.01459      200.02178      786.75792    
      1000  -95081.415      513.1546      -94568.261      200.0075       200.01649      787.14954    
      1100  -95086.03       513.06044     -94572.969      200.01357      200.02456      787.54115    
      1200  -95103.255      506.90483     -94596.35       200.00729      200.02028      787.93277    
      1300  -95099.119      485.10175     -94614.017      200.01226      200.02711      788.32439    
      1400  -95106.075      495.10979     -94610.966      200.0064       200.02265      788.716      
      1500  -95087.633      497.6245      -94590.009      200.01067      200.02802      789.10762    
      1600  -95075.281      506.98489     -94568.296      200.00517      200.02332      789.49924    
      1700  -95067.559      505.38347     -94562.176      200.00998      200.02847      789.89085    
      1800  -95077.698      504.60216     -94573.096      200.00386      200.02268      790.28247    
      1900  -95076.323      488.92771     -94587.396      200.0085       200.02746      790.67409    
      2000  -95084.473      496.12446     -94588.348      200.00195      200.02085      791.0657     
      2100  -95064.63       490.32665     -94574.304      200.00702      200.02572      791.45732    
      2200  -95063.387      507.20821     -94556.179      200.00045      200.01873      791.84894    
      2300  -95058.102      511.25704     -94546.845      200.00451      200.02228      792.24055    
      2400  -95055.829      505.87782     -94549.951      199.99817      200.01562      792.63217    
      2500  -95057.613      499.98621     -94557.627      200.00119      200.01859      793.02379    
      2600  -95057.823      498.08427     -94559.739      199.99507      200.01238      793.4154     
      2700  -95049.94       497.57642     -94552.363      199.99678      200.01424      793.80702    
      2800  -95039.466      502.63591     -94536.83       199.9905       200.0082       794.19864    
      2900  -95030.148      505.76522     -94524.383      199.99157      200.00967      794.59025    
      3000  -95024.871      504.43716     -94520.434      199.98459      200.0036       794.98187    
      3100  -95025.355      500.55872     -94524.797      199.98504      200.00512      795.37349    
      3200  -95021.981      494.67887     -94527.303      199.97719      199.99865      795.7651     
      3300  -95019.859      497.39051     -94522.469      199.97712      199.99988      796.15672    
      3400  -95015.558      506.39602     -94509.162      199.96909      199.99314      796.54834    
      3500  -94996.442      500.77441     -94495.667      199.96869      199.99407      796.93995    
      3600  -94993.903      504.85856     -94489.045      199.96006      199.98687      797.33157    
      3700  -94987.916      496.82366     -94491.093      199.95887      199.98682      797.72319    
      3800  -94995.377      502.76466     -94492.612      199.95043      199.97932      798.11481    
      3900  -94979.462      491.73384     -94487.728      199.94887      199.97864      798.50642    
      4000  -94974.141      498.03958     -94476.101      199.9406       199.97065      798.89804    
      4100  -94965.239      503.31293     -94461.926      199.93857      199.96866      799.28966    
      4200  -94958.69       506.80278     -94451.887      199.93065      199.96045      799.68127    
      4300  -94951.559      501.74947     -94449.81       199.92807      199.95725      800.07289    
      4400  -94952.917      501.75624     -94451.161      199.92018      199.94864      800.46451    
      4500  -94944.139      494.43726     -94449.701      199.91707      199.94469      800.85612    
      4600  -94937.24       498.07462     -94439.165      199.90898      199.93598      801.24774    
      4700  -94919.01       495.84995     -94423.16       199.90513      199.9316       801.63936    
      4800  -94914.358      505.76436     -94408.594      199.89678      199.92301      802.03097    
      4900  -94910.722      507.97218     -94402.75       199.8918       199.91804      802.42259    
      5000  -94907.984      504.6079      -94403.376      199.88293      199.90934      802.81421    
      5100  -94900.275      496.50299     -94403.772      199.8766       199.90366      803.20582    
      5200  -94889.353      493.55763     -94395.795      199.86744      199.89538      803.59744    
      5300  -94881.049      501.13684     -94379.912      199.85989      199.88908      803.98906    
      5400  -94872.542      509.54765     -94362.994      199.84997      199.88101      804.38067    
      5500  -94862.355      509.16361     -94353.192      199.84126      199.87413      804.77229    
      5600  -94858.844      507.18965     -94351.654      199.83144      199.86637      805.16391    
      5700  -94854.738      501.8423      -94352.895      199.82176      199.85843      805.55552    
      5800  -94844.415      496.19552     -94348.22       199.8118       199.85023      805.94714    
      5900  -94824.55       492.27347     -94332.276      199.80144      199.84116      806.33876    
      6000  -94821.351      508.50722     -94312.843      199.79224      199.83306      806.73037    
      6100  -94801.926      501.6236      -94300.303      199.78082      199.82262      807.12199    
      6200  -94802.067      504.59305     -94297.474      199.77152      199.81408      807.51361    
      6300  -94796.989      499.63347     -94297.355      199.75917      199.8023       807.90522    
      6400  -94786.614      495.34619     -94291.267      199.74989      199.79327      808.29684    
      6500  -94770.197      494.66807     -94275.529      199.73702      199.78061      808.68846    
      6600  -94759.057      503.57229     -94255.485      199.72775      199.77111      809.08007    
      6700  -94752.021      511.21262     -94240.809      199.71409      199.7573       809.47169    
      6800  -94742.625      505.24557     -94237.38       199.70436      199.74717      809.86331    
      6900  -94731.538      494.35136     -94237.187      199.68995      199.73224      810.25492    
      7000  -94726.161      494.7252      -94231.435      199.67971      199.72159      810.64654    
      7100  -94718.294      502.22417     -94216.07       199.66445      199.70618      811.03816    
      7200  -94702.902      505.9787      -94196.923      199.65367      199.69542      811.42977    
      7300  -94688.949      507.9812      -94180.967      199.6373       199.67913      811.82139    
      7400  -94677.451      502.4668      -94174.984      199.62613      199.66836      812.21301    
      7500  -94671.463      498.59953     -94172.863      199.60831      199.65131      812.60462    
      7600  -94656.284      490.40183     -94165.882      199.59616      199.64007      812.99624    
      7700  -94648.5        498.49762     -94150.003      199.57778      199.623        813.38786    
      7800  -94633.525      502.77736     -94130.747      199.56491      199.61144      813.77947    
      7900  -94618.914      504.16428     -94114.749      199.54558      199.59392      814.17109    
      8000  -94611.319      504.82411     -94106.495      199.53162      199.58186      814.56271    
      8100  -94601.411      500.16891     -94101.242      199.51116      199.56374      814.95432    
      8200  -94593.838      500.13542     -94093.703      199.4961       199.5514       815.34594    
      8300  -94580.937      501.89859     -94079.038      199.47496      199.53309      815.73756    
      8400  -94561.067      499.37414     -94061.693      199.4589       199.52013      816.12917    
      8500  -94551.407      506.67562     -94044.731      199.43673      199.50084      816.52079    
      8600  -94533.341      501.35199     -94031.989      199.41951      199.48653      816.91241    
      8700  -94526.041      503.19191     -94022.849      199.39708      199.46659      817.30402    
      8800  -94505.89       489.80538     -94016.084      199.37894      199.45078      817.69564    
      8900  -94508.394      503.54515     -94004.848      199.35596      199.42975      818.08726    
      9000  -94488.832      499.70474     -93989.127      199.33719      199.41273      818.47887    
      9100  -94475.934      505.43073     -93970.503      199.31353      199.39057      818.87049    
      9200  -94458.228      504.67601     -93953.552      199.29363      199.3719       819.26211    
      9300  -94446.491      506.70322     -93939.788      199.26982      199.34905      819.65372    
      9400  -94433.784      502.27853     -93931.505      199.24857      199.32849      820.04534    
      9500  -94423.52       499.76495     -93923.755      199.22432      199.30465      820.43696    
      9600  -94407.333      495.22079     -93912.112      199.20193      199.28269      820.82857    
      9700  -94392.558      498.19253     -93894.365      199.17694      199.25816      821.22019    
      9800  -94378.877      504.10797     -93874.769      199.15338      199.23495      821.61181    
      9900  -94363.059      505.43601     -93857.623      199.12752      199.20963      822.00342    
     10000  -94350.047      504.26177     -93845.786      199.10251      199.18516      822.39504    
     10100  -94337.933      500.79624     -93837.137      199.07579      199.15932      822.78666    
     10200  -94320.402      493.83613     -93826.566      199.04899      199.13365      823.17827    
     10300  -94310.898      499.98941     -93810.908      199.02144      199.10776      823.56989    
     10400  -94295.764      504.14677     -93791.617      198.9928       199.08127      823.96151    
     10500  -94278.339      505.13791     -93773.201      198.96424      199.05503      824.35312    
     10600  -94259.011      499.94781     -93759.063      198.93425      199.0276       824.74474    
     10700  -94252.247      503.63983     -93748.607      198.90503      199.00116      825.13636    
     10800  -94238.622      500.95429     -93737.668      198.87373      198.97286      825.52797    
     10900  -94220.25       497.92181     -93722.328      198.844        198.94597      825.91959    
     11000  -94202.611      500.40725     -93702.204      198.8119       198.91672      826.31121    
     11100  -94182.223      500.06287     -93682.16       198.78157      198.88914      826.70282    
     11200  -94170.877      504.38999     -93666.487      198.74874      198.85873      827.09444    
     11300  -94156.988      502.68314     -93654.305      198.71792      198.83044      827.48606    
     11400  -94140.01       497.53074     -93642.48       198.68395      198.79884      827.87767    
     11500  -94122.487      495.89874     -93626.588      198.65295      198.76993      828.26929    
     11600  -94104.142      497.97041     -93606.171      198.61895      198.73758      828.66091    
     11700  -94086.669      500.93829     -93585.731      198.58717      198.70715      829.05252    
     11800  -94073.324      504.50339     -93568.821      198.55277      198.67409      829.44414    
     11900  -94059.609      503.70198     -93555.907      198.52042      198.64269      829.83576    
     12000  -94044.028      500.61081     -93543.417      198.48576      198.60882      830.22737    
     12100  -94029.257      502.23699     -93527.02       198.45283      198.57649      830.61899    
     12200  -94005.204      500.67376     -93504.531      198.41795      198.54236      831.01061    
     12300  -93988.905      506.24422     -93482.661      198.38413      198.5091       831.40222    
     12400  -93977.651      510.45694     -93467.194      198.34935      198.47519      831.79384    
     12500  -93958.86       498.5814      -93460.278      198.31429      198.44113      832.18546    
     12600  -93940.699      497.13879     -93443.561      198.27906      198.40719      832.57707    
     12700  -93918.862      497.73872     -93421.123      198.24286      198.37271      832.96869    
     12800  -93895.653      497.50362     -93398.149      198.20692      198.33878      833.36031    
     12900  -93881.3        502.40657     -93378.893      198.16986      198.30431      833.75192    
     13000  -93872.506      507.55956     -93364.946      198.13344      198.2707       834.14354    
     13100  -93847.972      490.8246      -93357.148      198.09532      198.23586      834.53516    
     13200  -93835.424      498.89025     -93336.534      198.05826      198.2022       834.92677    
     13300  -93810.48       498.78032     -93311.7        198.01995      198.16757      835.31839    
     13400  -93791.726      501.59439     -93290.131      197.98268      198.13385      835.71001    
     13500  -93769.214      497.14517     -93272.069      197.94441      198.09879      836.10162    
     13600  -93761.466      502.5983      -93258.868      197.90698      198.06435      836.49324    
     13700  -93742.708      494.32314     -93248.385      197.86907      198.0289       836.88486    
     13800  -93723.097      496.19681     -93226.901      197.83241      197.99471      837.27647    
     13900  -93701.119      497.95669     -93203.162      197.79487      197.95901      837.66809    
     14000  -93681.9        500.50473     -93181.396      197.75884      197.92438      838.05971    
     14100  -93661.825      502.32839     -93159.496      197.72182      197.88823      838.45132    
     14200  -93640.18       504.39677     -93135.783      197.68646      197.85346      838.84294    
     14300  -93618.194      508.55129     -93109.643      197.65026      197.81737      839.23456    
     14400  -93598.275      509.00157     -93089.273      197.61531      197.78236      839.62617    
     14500  -93582.501      501.71859     -93080.782      197.57941      197.74619      840.01779    
     14600  -93563.116      498.40979     -93064.706      197.54469      197.71121      840.40941    
     14700  -93544.87       500.77107     -93044.099      197.50947      197.67603      840.80102    
     14800  -93524.437      504.79511     -93019.642      197.47498      197.64137      841.19264    
     14900  -93497.452      501.70246     -92995.75       197.44025      197.60694      841.58426    
     15000  -93480.626      502.77377     -92977.852      197.40554      197.57284      841.97587    
     15100  -93468.468      500.95965     -92967.508      197.37109      197.53933      842.36749    
     15200  -93449.281      500.33491     -92948.947      197.3366       197.50631      842.75911    
     15300  -93426.161      501.47826     -92924.682      197.30238      197.4737       843.15072    
     15400  -93405.327      507.66423     -92897.662      197.2683       197.4417       843.54234    
     15500  -93382.406      505.22074     -92877.185      197.23472      197.41046      843.93396    
     15600  -93363.262      503.91058     -92859.352      197.20095      197.37962      844.32557    
     15700  -93336.872      497.50777     -92839.365      197.16796      197.34987      844.71719    
     15800  -93318.989      500.35672     -92818.632      197.1346       197.32002      845.10881    
     15900  -93294.33       495.60126     -92798.729      197.10264      197.2914       845.50042    
     16000  -93280.048      500.0147      -92780.034      197.07013      197.26189      845.89204    
     16100  -93254.129      492.73922     -92761.389      197.0396       197.23432      846.28366    
     16200  -93238.024      501.02216     -92737.002      197.00785      197.20499      846.67527    
     16300  -93214.482      506.59198     -92707.89       196.97902      197.17853      847.06689    
     16400  -93190.304      504.37528     -92685.928      196.94861      197.14958      847.45851    
     16500  -93165.578      496.2529      -92669.325      196.92115      197.12352      847.85012    
     16600  -93150.188      498.45335     -92651.734      196.8919       197.09514      848.24174    
     16700  -93128.63       499.97647     -92628.654      196.8656       197.06942      848.63336    
     16800  -93106.273      502.1817      -92604.091      196.83807      197.04214      849.02497    
     16900  -93080.717      502.46051     -92578.256      196.81243      197.01644      849.41659    
     17000  -93054.771      502.08875     -92552.682      196.78621      196.99025      849.80821    
     17100  -93033.804      504.96274     -92528.842      196.76124      196.96519      850.19982    
     17200  -93008.434      500.08113     -92508.353      196.73585      196.93961      850.59144    
     17300  -92986.457      494.64909     -92491.808      196.71127      196.91512      850.98306    
     17400  -92969.917      497.61488     -92472.302      196.68659      196.8906       851.37467    
     17500  -92945.799      500.37827     -92445.42       196.66235      196.86694      851.76629    
     17600  -92915.686      501.29781     -92414.389      196.63817      196.84357      852.15791    
     17700  -92897.085      504.37193     -92392.713      196.6143       196.82063      852.54952    
     17800  -92874.087      499.94843     -92374.138      196.59061      196.79815      852.94114    
     17900  -92854.001      499.98593     -92354.015      196.5672       196.77632      853.33276    
     18000  -92829.157      497.24837     -92331.908      196.54413      196.75513      853.72437    
     18100  -92812.451      504.95357     -92307.497      196.52091      196.73391      854.11599    
     18200  -92781.098      498.26206     -92282.836      196.49857      196.71401      854.50761    
     18300  -92760.672      501.22237     -92259.45       196.47581      196.69367      854.89922    
     18400  -92735.294      498.87479     -92236.419      196.45444      196.67477      855.29084    
     18500  -92713.217      499.93398     -92213.283      196.43232      196.65515      855.68246    
     18600  -92694.924      504.51422     -92190.41       196.41163      196.63662      856.07407    
     18700  -92661.468      496.68767     -92164.78       196.39055      196.61766      856.46569    
     18800  -92636.515      500.79234     -92135.723      196.37089      196.60001      856.85731    
     18900  -92613.216      503.29755     -92109.918      196.3509       196.58138      857.24892    
     19000  -92587.869      494.98388     -92092.885      196.33222      196.56373      857.64054    
     19100  -92576.687      501.49343     -92075.193      196.31326      196.54531      858.03216    
     19200  -92552.047      502.50106     -92049.546      196.29576      196.528        858.42377    
     19300  -92520.136      499.69667     -92020.44       196.27802      196.50983      858.81539    
     19400  -92497.815      505.04599     -91992.769      196.26179      196.49292      859.20701    
     19500  -92468.129      499.79597     -91968.333      196.24484      196.47509      859.59862    
     19600  -92445.713      500.70541     -91945.007      196.22954      196.45844      859.99024    
     19700  -92419.382      497.91333     -91921.469      196.21325      196.44102      860.38186    
     19800  -92397.002      501.75487     -91895.247      196.19838      196.425        860.77347    
     19900  -92366.353      504.9835      -91861.37       196.18234      196.40824      861.16509    
     20000  -92342.915      508.2153      -91834.7        196.16784      196.39315      861.55671    
     20100  -92317.817      501.70966     -91816.108      196.15178      196.37667      861.94832    
     20200  -92296.117      501.66637     -91794.45       196.13726      196.36189      862.33994    
     20300  -92273.159      503.58997     -91769.569      196.12168      196.34657      862.73156    
     20400  -92240.706      498.84949     -91741.857      196.10655      196.33195      863.12317    
     20500  -92213.583      504.32438     -91709.258      196.09138      196.31759      863.51479    
     20600  -92190.989      511.40135     -91679.588      196.07558      196.30338      863.90641    
     20700  -92167.049      506.03985     -91661.009      196.06034      196.28992      864.29802    
     20800  -92142.29       502.16128     -91640.129      196.0444       196.27609      864.68964    
     20900  -92114.657      499.47305     -91615.184      196.02962      196.26353      865.08126    
     21000  -92093.531      503.80069     -91589.73       196.01338      196.24957      865.47287    
     21100  -92060.988      499.19184     -91561.796      195.99918      196.23748      865.86449    
     21200  -92030.241      501.32722     -91528.913      195.9833       196.22351      866.25611    
     21300  -92003.312      503.66094     -91499.651      195.96961      196.21157      866.64773    
     21400  -91983.189      503.72433     -91479.464      195.95385      196.19737      867.03934    
     21500  -91962.284      501.14801     -91461.136      195.94021      196.18495      867.43096    
     21600  -91928.969      496.39517     -91432.574      195.92519      196.17068      867.82258    
     21700  -91904.955      504.59777     -91400.357      195.91179      196.15788      868.21419    
     21800  -91876.629      506.07138     -91370.557      195.89711      196.14326      868.60581    
     21900  -91850.275      504.90127     -91345.373      195.8841       196.12986      868.99743    
     22000  -91821.191      497.11252     -91324.078      195.86972      196.11466      869.38904    
     22100  -91800.037      492.23833     -91307.799      195.85721      196.10093      869.78066    
     22200  -91777.992      501.09199     -91276.9        195.84323      196.08534      870.17228    
     22300  -91741.163      498.03963     -91243.123      195.8308       196.07125      870.56389    
     22400  -91714.518      502.13384     -91212.385      195.81738      196.05606      870.95551    
     22500  -91684.508      501.80136     -91182.707      195.80431      196.0412       871.34713    
     22600  -91659.011      505.86294     -91153.148      195.79118      196.02653      871.73874    
     22700  -91624.551      501.63357     -91122.917      195.77776      196.01168      872.13036    
     22800  -91600.203      502.90016     -91097.303      195.76449      195.99717      872.52198    
     22900  -91575.529      497.45992     -91078.069      195.75065      195.98247      872.91359    
     23000  -91550.146      496.78129     -91053.364      195.737        195.96848      873.30521    
     23100  -91521.485      499.13951     -91022.345      195.72274      195.95409      873.69683    
     23200  -91494.752      506.73514     -90988.017      195.70947      195.94112      874.08844    
     23300  -91462.764      505.43943     -90957.324      195.6939       195.92646      874.48006    
     23400  -91431.535      497.28782     -90934.247      195.68074      195.91469      874.87168    
     23500  -91409.554      495.28153     -90914.272      195.66431      195.90014      875.26329    
     23600  -91378.935      493.06935     -90885.866      195.65079      195.88881      875.65491    
     23700  -91352.843      502.11761     -90850.725      195.6344       195.87502      876.04653    
     23800  -91322.196      503.46886     -90818.727      195.62008      195.86346      876.43814    
     23900  -91291.545      501.32268     -90790.223      195.60404      195.84997      876.82976    
     24000  -91260.142      493.03153     -90767.11       195.58948      195.83802      877.22138    
     24100  -91239.846      493.08896     -90746.757      195.57331      195.82428      877.61299    
     24200  -91209.095      493.64615     -90715.449      195.55873      195.81202      878.00461    
     24300  -91180.224      501.01807     -90679.206      195.54233      195.79753      878.39623    
     24400  -91145.042      496.98932     -90648.053      195.52778      195.78447      878.78784    
     24500  -91119.166      501.73461     -90617.431      195.51201      195.76982      879.17946    
     24600  -91092.162      504.32295     -90587.839      195.49668      195.75509      879.57108    
     24700  -91066.877      506.18998     -90560.687      195.48207      195.74046      879.96269    
     24800  -91033.904      495.83655     -90538.068      195.46638      195.7242       880.35431    
     24900  -91011.752      500.45446     -90511.297      195.4526       195.70926      880.74593    
     25000  -90974.969      499.74563     -90475.223      195.43704      195.69249      881.13754    
     25100  -90943.394      503.45043     -90439.944      195.42267      195.67694      881.52916    
     25200  -90913.311      501.85665     -90411.455      195.40738      195.66028      881.92078    
     25300  -90890.346      503.43178     -90386.914      195.39247      195.64406      882.31239    
     25400  -90861.463      499.88665     -90361.577      195.37683      195.62724      882.70401    
     25500  -90833.101      496.19957     -90336.901      195.36209      195.61135      883.09563    
     25600  -90800.451      491.7838      -90308.667      195.3458       195.59411      883.48724    
     25700  -90769.282      498.48462     -90270.798      195.33106      195.57856      883.87886    
     25800  -90735.7        499.47299     -90236.227      195.31408      195.56133      884.27048    
     25900  -90701.225      495.35248     -90205.872      195.29908      195.54623      884.66209    
     26000  -90680.846      502.58639     -90178.26       195.2815       195.52946      885.05371    
     26100  -90651.728      496.53056     -90155.198      195.26583      195.5148       885.44533    
     26200  -90625.119      496.11408     -90129.005      195.24804      195.49858      885.83694    
     26300  -90591.34       499.44036     -90091.899      195.23187      195.48432      886.22856    
     26400  -90557.209      501.12063     -90056.089      195.21416      195.4685       886.62018    
     26500  -90530.806      505.75734     -90025.049      195.19723      195.45399      887.01179    
     26600  -90495.884      501.58334     -89994.301      195.17991      195.43913      887.40341    
     26700  -90463.786      501.02126     -89962.764      195.16225      195.42401      887.79503    
     26800  -90430.892      499.40219     -89931.49       195.14531      195.40937      888.18664    
     26900  -90401.107      498.14163     -89902.966      195.1273       195.39308      888.57826    
     27000  -90370.912      494.90498     -89876.007      195.11088      195.37823      888.96988    
     27100  -90349.048      502.20269     -89846.845      195.09307      195.36124      889.36149    
     27200  -90314.435      502.16434     -89812.271      195.0771       195.34586      889.75311    
     27300  -90277.448      502.96671     -89774.481      195.05938      195.32793      890.14473    
     27400  -90248.761      505.63874     -89743.123      195.04421      195.31219      890.53634    
     27500  -90221.233      503.53915     -89717.694      195.02668      195.29349      890.92796    
     27600  -90197.019      502.14115     -89694.877      195.01156      195.27717      891.31958    
     27700  -90156.288      492.49152     -89663.797      194.99447      195.2584       891.71119    
     27800  -90128.443      500.41978     -89628.023      194.97893      195.24105      892.10281    
     27900  -90091.39       500.10113     -89591.289      194.96273      195.22296      892.49443    
     28000  -90057.635      499.99811     -89557.636      194.94634      195.20488      892.88604    
     28100  -90028.249      501.9506      -89526.299      194.93013      195.18717      893.27766    
     28200  -89999.028      498.12357     -89500.905      194.91268      195.16848      893.66928    
     28300  -89965.353      490.61447     -89474.739      194.89608      195.15073      894.06089    
     28400  -89936.828      498.13325     -89438.694      194.87832      195.13234      894.45251    
     28500  -89902.166      501.3079      -89400.858      194.8612       195.11516      894.84413    
     28600  -89871.634      502.78936     -89368.845      194.84231      195.0963       895.23574    
     28700  -89837.043      499.87901     -89337.164      194.82467      195.07929      895.62736    
     28800  -89805.086      499.73562     -89305.35       194.80518      195.06074      896.01898    
     28900  -89768.958      498.13646     -89270.822      194.78665      195.0435       896.41059    
     29000  -89740.645      503.69887     -89236.946      194.76702      195.02542      896.80221    
     29100  -89709.401      500.99693     -89208.404      194.74731      195.00738      897.19383    
     29200  -89683.913      501.51376     -89182.399      194.72765      194.98947      897.58544    
     29300  -89651.237      498.34097     -89152.896      194.7075       194.97119      897.97706    
     29400  -89611.435      496.72269     -89114.712      194.68797      194.95306      898.36868    
     29500  -89580.838      504.89007     -89075.948      194.66788      194.93423      898.76029    
     29600  -89549.841      504.51123     -89045.33       194.64837      194.91564      899.15191    
     29700  -89519.258      499.91788     -89019.34       194.62819      194.89618      899.54353    
     29800  -89485.684      494.10913     -88991.575      194.60911      194.8776       899.93514    
     29900  -89455.354      498.83825     -88956.516      194.58889      194.85752      900.32676    
     30000  -89413.568      500.72084     -88912.847      194.57025      194.83864      900.71838    
     30100  -89383.166      502.14733     -88881.019      194.55064      194.81846      901.10999    
     30200  -89354.241      499.83961     -88854.401      194.53182      194.79894      901.50161    
     30300  -89322.642      496.21168     -88826.43       194.51281      194.779        901.89323    
     30400  -89288.686      496.7223      -88791.964      194.4934       194.75878      902.28484    
     30500  -89255.269      506.34753     -88748.922      194.47455      194.73902      902.67646    
     30600  -89219.105      503.04314     -88716.062      194.45511      194.71877      903.06808    
     30700  -89190.837      505.12436     -88685.713      194.4352       194.69833      903.45969    
     30800  -89154.381      496.8888      -88657.493      194.41579      194.67836      903.85131    
     30900  -89129.015      500.33464     -88628.681      194.39539      194.65763      904.24293    
     31000  -89093.183      497.69549     -88595.487      194.37552      194.63786      904.63454    
     31100  -89052.753      499.11835     -88553.634      194.35441      194.61698      905.02616    
     31200  -89017.629      500.65038     -88516.979      194.33397      194.59714      905.41778    
     31300  -88987.82       504.8605      -88482.96       194.31216      194.57634      905.80939    
     31400  -88954.585      502.12328     -88452.462      194.29138      194.55664      906.20101    
     31500  -88925.933      498.67393     -88427.259      194.26892      194.53544      906.59263    
     31600  -88891.917      496.68544     -88395.231      194.24733      194.51535      906.98424    
     31700  -88854.381      500.42611     -88353.955      194.22519      194.49478      907.37586    
     31800  -88819.751      502.21142     -88317.54       194.20277      194.47387      907.76748    
     31900  -88782.652      498.35635     -88284.296      194.18088      194.45364      908.15909    
     32000  -88751.157      499.23486     -88251.922      194.15773      194.43213      908.55071    
     32100  -88717.052      496.02205     -88221.03       194.13564      194.41195      908.94233    
     32200  -88687.329      497.20038     -88190.128      194.11275      194.39053      909.33394    
     32300  -88655.066      499.34303     -88155.723      194.09052      194.36979      909.72556    
     32400  -88619.975      504.58546     -88115.389      194.06779      194.34799      910.11718    
     32500  -88580.699      502.32236     -88078.376      194.04641      194.32735      910.50879    
     32600  -88548.743      501.22341     -88047.52       194.02376      194.30514      910.90041    
     32700  -88519.739      495.97513     -88023.763      194.00294      194.28444      911.29203    
     32800  -88482.189      490.70733     -87991.481      193.98071      194.26202      911.68364    
     32900  -88449.423      496.43889     -87952.984      193.96011      194.24098      912.07526    
     33000  -88412.621      499.7205      -87912.901      193.93847      194.21867      912.46688    
     33100  -88378.365      503.10388     -87875.262      193.91771      194.19716      912.85849    
     33200  -88341.766      501.21748     -87840.549      193.89694      194.17546      913.25011    
     33300  -88313.135      503.31077     -87809.824      193.87577      194.15332      913.64173    
     33400  -88278.469      493.92551     -87784.544      193.85535      194.13174      914.03334    
     33500  -88246.723      498.02141     -87748.701      193.8339       194.10921      914.42496    
     33600  -88210.352      503.63577     -87706.716      193.81385      194.08801      914.81658    
     33700  -88170.76       500.4822      -87670.278      193.79223      194.06561      915.20819    
     33800  -88136.662      501.35729     -87635.304      193.77205      194.04463      915.59981    
     33900  -88102.509      501.46812     -87601.041      193.75057      194.02257      915.99143    
     34000  -88068.881      502.90668     -87565.974      193.72994      194.00154      916.38304    
     34100  -88034.986      505.50064     -87529.486      193.70863      193.98005      916.77466    
     34200  -87997.27       504.32214     -87492.948      193.68742      193.95904      917.16628    
     34300  -87959.342      501.40904     -87457.932      193.66602      193.93841      917.55789    
     34400  -87924.044      499.0522      -87424.992      193.644        193.91747      917.94951    
     34500  -87891.098      496.5577      -87394.54       193.62256      193.89747      918.34113    
     34600  -87859.341      496.19854     -87363.142      193.60029      193.87675      918.73274    
     34700  -87824.225      499.98012     -87324.244      193.57861      193.85682      919.12436    
     34800  -87781.364      500.12281     -87281.241      193.55638      193.83646      919.51598    
     34900  -87750.631      505.23473     -87245.396      193.53449      193.81654      919.90759    
     35000  -87716.553      503.84641     -87212.706      193.51231      193.79599      920.29921    
     35100  -87682.999      497.45595     -87185.544      193.49063      193.77622      920.69083    
     35200  -87650.331      497.21255     -87153.118      193.46765      193.75482      921.08244    
     35300  -87606.681      499.00196     -87107.679      193.44698      193.73504      921.47406    
     35400  -87573.295      503.22641     -87070.069      193.4244       193.71309      921.86568    
     35500  -87536.147      499.6027      -87036.545      193.40364      193.69238      922.25729    
     35600  -87503.759      500.80497     -87002.954      193.38197      193.67025      922.64891    
     35700  -87463.519      495.50984     -86968.01       193.3611       193.64862      923.04053    
     35800  -87432.476      504.60112     -86927.875      193.34022      193.6266       923.43214    
     35900  -87396.662      508.5928      -86888.069      193.31947      193.60454      923.82376    
     36000  -87357.346      501.18903     -86856.157      193.29884      193.58239      924.21538    
     36100  -87325.922      495.4345      -86830.488      193.27804      193.55992      924.60699    
     36200  -87294.107      499.08642     -86795.02       193.258        193.53822      924.99861    
     36300  -87255.981      500.69187     -86755.289      193.23741      193.51587      925.39023    
     36400  -87222.586      507.07957     -86715.506      193.21787      193.49457      925.78184    
     36500  -87179.483      500.0221      -86679.461      193.19748      193.47258      926.17346    
     36600  -87147.836      498.34619     -86649.489      193.17766      193.45146      926.56508    
     36700  -87114.469      492.8987      -86621.57       193.15729      193.43043      926.95669    
     36800  -87078.126      497.81495     -86580.312      193.13694      193.40943      927.34831    
     36900  -87040.317      502.58511     -86537.732      193.11678      193.38917      927.73993    
     37000  -87001.332      502.99041     -86498.342      193.09586      193.36841      928.13154    
     37100  -86967.709      506.8743      -86460.834      193.07548      193.34883      928.52316    
     37200  -86926.722      499.7161      -86427.006      193.05408      193.32863      928.91478    
     37300  -86892.127      493.93847     -86398.188      193.03323      193.30933      929.30639    
     37400  -86865.058      500.72613     -86364.332      193.01159      193.28949      929.69801    
     37500  -86816.779      496.68118     -86320.098      192.99041      193.27057      930.08963    
     37600  -86780.561      499.88572     -86280.676      192.96861      193.25135      930.48124    
     37700  -86747.961      503.25455     -86244.706      192.94663      193.23219      930.87286    
     37800  -86710.632      500.05606     -86210.576      192.92486      193.21332      931.26448    
     37900  -86679.535      501.07116     -86178.463      192.90305      193.19431      931.65609    
     38000  -86649.187      503.25078     -86145.936      192.88137      193.17527      932.04771    
     38100  -86607.585      501.41849     -86106.166      192.85954      193.15582      932.43933    
     38200  -86558.76       497.1492      -86061.611      192.83819      193.13637      932.83094    
     38300  -86527.545      503.5588      -86023.986      192.81681      193.11659      933.22256    
     38400  -86495.157      505.05622     -85990.101      192.79587      193.09668      933.61418    
     38500  -86458.593      497.25448     -85961.338      192.7752       193.07649      934.00579    
     38600  -86427.148      498.3117      -85928.837      192.75487      193.05599      934.39741    
     38700  -86385.886      501.92965     -85883.956      192.73513      193.03559      934.78903    
     38800  -86342.583      500.56597     -85842.017      192.71583      193.01491      935.18064    
     38900  -86309.524      501.89896     -85807.625      192.69681      192.99418      935.57226    
     39000  -86272.537      495.96345     -85776.573      192.67808      192.9734       935.96388    
     39100  -86242.196      499.24349     -85742.953      192.65959      192.95269      936.3555     
     39200  -86205.33       499.33336     -85705.997      192.64161      192.93238      936.74711    
     39300  -86163.057      502.36649     -85660.691      192.62379      192.91202      937.13873    
     39400  -86123.582      503.11071     -85620.471      192.60593      192.89187      937.53035    
     39500  -86089.532      504.09418     -85585.437      192.58807      192.87182      937.92196    
     39600  -86055.013      498.28567     -85556.727      192.57021      192.85241      938.31358    
     39700  -86021.184      496.29252     -85524.891      192.55188      192.83284      938.7052     
     39800  -85981          495.60085     -85485.399      192.5338       192.81413      939.09681    
     39900  -85941.455      497.46761     -85443.987      192.51522      192.79534      939.48843    
     40000  -85906.937      503.76395     -85403.173      192.49683      192.7774       939.88005    
     40100  -85867.422      502.46335     -85364.959      192.47847      192.75953      940.27166    
     40200  -85830.434      499.73891     -85330.695      192.45985      192.74192      940.66328    
     40300  -85801.976      498.95982     -85303.016      192.44139      192.72502      941.0549     
     40400  -85754.816      490.74677     -85264.069      192.42227      192.70782      941.44651    
     40500  -85721.815      501.59911     -85220.215      192.40426      192.6922       941.83813    
     40600  -85681.533      500.44939     -85181.083      192.38472      192.67509      942.22975    
     40700  -85641.443      498.80272     -85142.641      192.36635      192.65955      942.62136    
     40800  -85604.964      500.61156     -85104.352      192.34727      192.64324      943.01298    
     40900  -85568.129      500.59025     -85067.539      192.32887      192.62754      943.4046     
     41000  -85529.795      495.81253     -85033.982      192.31042      192.61151      943.79621    
     41100  -85495.677      495.12376     -85000.553      192.29209      192.59532      944.18783    
     41200  -85458.194      497.16679     -84961.027      192.27402      192.57889      944.57945    
     41300  -85421.509      506.35683     -84915.152      192.2566       192.56244      944.97106    
     41400  -85378.062      499.94461     -84878.118      192.23947      192.54567      945.36268    
     41500  -85346.187      501.28151     -84844.906      192.22236      192.52817      945.7543     
     41600  -85309.145      498.25734     -84810.887      192.2062       192.5109       946.14591    
     41700  -85272.85       500.36824     -84772.482      192.18967      192.49271      946.53753    
     41800  -85226.138      499.12375     -84727.015      192.17396      192.47472      946.92915    
     41900  -85188.309      500.78664     -84687.523      192.15827      192.45635      947.32076    
     42000  -85156.289      501.4359      -84654.853      192.14244      192.43788      947.71238    
     42100  -85117.347      494.04608     -84623.301      192.12686      192.41933      948.104      
     42200  -85085.323      498.58933     -84586.734      192.11135      192.401        948.49561    
     42300  -85044.24       503.86054     -84540.379      192.0955       192.38233      948.88723    
     42400  -85005.751      507.44812     -84498.303      192.08019      192.36437      949.27885    
     42500  -84969.171      501.99806     -84467.172      192.06467      192.34632      949.67046    
     42600  -84932.192      497.30444     -84434.887      192.04908      192.32855      950.06208    
     42700  -84897.922      499.56487     -84398.357      192.03361      192.31133      950.4537     
     42800  -84855.972      497.77738     -84358.195      192.01793      192.29462      950.84531    
     42900  -84818.467      507.6222      -84310.845      192.0016       192.27802      951.23693    
     43000  -84778.708      506.39314     -84272.315      191.98572      192.26248      951.62855    
     43100  -84742.96       503.83898     -84239.121      191.96878      192.24637      952.02016    
     43200  -84703.911      498.46888     -84205.442      191.95275      192.23161      952.41178    
     43300  -84665.122      495.2241      -84169.898      191.93549      192.21613      952.8034     
     43400  -84628.649      496.9791      -84131.67       191.91907      192.20194      953.19501    
     43500  -84592.901      506.3911      -84086.51       191.90155      192.18702      953.58663    
     43600  -84547.857      503.75821     -84044.099      191.88449      192.17272      953.97825    
     43700  -84515.011      503.70615     -84011.304      191.86738      192.15848      954.36986    
     43800  -84481.251      501.4762      -83979.775      191.84963      192.14358      954.76148    
     43900  -84444.297      502.71391     -83941.583      191.83301      192.12963      955.1531     
     44000  -84400.47       498.31748     -83902.152      191.81548      192.11454      955.54471    
     44100  -84365.824      505.27785     -83860.546      191.7987       192.10004      955.93633    
     44200  -84321.567      506.13173     -83815.435      191.78145      192.08491      956.32795    
     44300  -84283.728      506.2222      -83777.506      191.7649       192.07014      956.71956    
     44400  -84252.185      503.04795     -83749.137      191.74795      192.05431      957.11118    
     44500  -84210.164      496.99738     -83713.167      191.73172      192.03888      957.5028     
     44600  -84175.564      500.70634     -83674.858      191.71507      192.02227      957.89441    
     44700  -84138.64       504.80379     -83633.836      191.69959      192.00647      958.28603    
     44800  -84092.784      501.7685      -83591.016      191.68372      191.98952      958.67765    
     44900  -84054.803      502.89881     -83551.905      191.66849      191.97273      959.06926    
     45000  -84021.842      498.98594     -83522.856      191.65363      191.95591      959.46088    
     45100  -83993.13       504.41052     -83488.72       191.6382       191.93828      959.8525     
     45200  -83950.387      499.94703     -83450.44       191.62462      191.92221      960.24411    
     45300  -83911.729      503.07301     -83408.656      191.60914      191.90432      960.63573    
     45400  -83862.458      500.85945     -83361.599      191.59589      191.88878      961.02735    
     45500  -83832.143      508.73143     -83323.412      191.5809       191.8715       961.41896    
     45600  -83795.404      504.75098     -83290.653      191.56701      191.85562      961.81058    
     45700  -83755.357      500.26383     -83255.093      191.55235      191.8396       962.2022     
     45800  -83717.299      499.28363     -83218.015      191.53784      191.82389      962.59381    
     45900  -83678.749      499.94504     -83178.804      191.52301      191.8083       962.98543    
     46000  -83642.464      507.77438     -83134.689      191.5085       191.79347      963.37705    
     46100  -83595.412      503.3716      -83092.04       191.49342      191.77844      963.76866    
     46200  -83560.334      499.31905     -83061.015      191.47811      191.76342      964.16028    
     46300  -83524.131      496.27567     -83027.855      191.46373      191.74967      964.5519     
     46400  -83489.045      501.15523     -82987.89       191.44774      191.73479      964.94351    
     46500  -83448.626      501.90293     -82946.723      191.4334       191.72198      965.33513    
     46600  -83410.39       504.46117     -82905.928      191.41718      191.70743      965.72675    
     46700  -83370.222      503.16613     -82867.056      191.40232      191.69444      966.11836    
     46800  -83332.973      499.88013     -82833.093      191.38668      191.68084      966.50998    
     46900  -83297.99       498.1939      -82799.796      191.37127      191.6677       966.9016     
     47000  -83257.29       497.80449     -82759.485      191.3563       191.65461      967.29321    
     47100  -83216.104      504.99055     -82711.114      191.3407       191.64071      967.68483    
     47200  -83173.098      502.93509     -82670.163      191.32653      191.62768      968.07645    
     47300  -83137.854      503.01172     -82634.842      191.31083      191.61322      968.46806    
     47400  -83101.3        499.85614     -82601.444      191.29703      191.60027      968.85968    
     47500  -83061.798      498.04844     -82563.75       191.28151      191.58547      969.2513     
     47600  -83025.489      503.61811     -82521.871      191.26792      191.57182      969.64291    
     47700  -82979.951      501.7898      -82478.161      191.25342      191.55713      970.03453    
     47800  -82940.661      510.94022     -82429.721      191.23938      191.54223      970.42615    
     47900  -82900.676      507.06449     -82393.612      191.22597      191.52777      970.81776    
     48000  -82868.442      505.66893     -82362.774      191.21158      191.51182      971.20938    
     48100  -82829.069      501.57772     -82327.492      191.19867      191.49711      971.601      
     48200  -82794.421      502.81472     -82291.606      191.18423      191.48088      971.99261    
     48300  -82754.171      499.65848     -82254.513      191.17128      191.46603      972.38423    
     48400  -82716.189      498.31123     -82217.878      191.15655      191.44947      972.77585    
     48500  -82676.235      497.82135     -82178.414      191.14311      191.43428      973.16746    
     48600  -82637.18       503.74175     -82133.438      191.12919      191.41863      973.55908    
     48700  -82595.459      504.82278     -82090.636      191.11505      191.40285      973.9507     
     48800  -82559.231      503.83056     -82055.4        191.10128      191.38775      974.34231    
     48900  -82519.935      495.7686      -82024.166      191.08713      191.37243      974.73393    
     49000  -82478.748      494.73455     -81984.014      191.07327      191.3579       975.12555    
     49100  -82444.047      503.45423     -81940.593      191.0587       191.34274      975.51716    
     49200  -82400.953      502.0406      -81898.913      191.0451       191.32903      975.90878    
     49300  -82362.079      498.28568     -81863.793      191.02965      191.31384      976.3004     
     49400  -82329.233      497.56105     -81831.672      191.01584      191.30065      976.69201    
     49500  -82294.007      504.47967     -81789.527      191.00078      191.28643      977.08363    
     49600  -82242.477      499.56083     -81742.916      190.9859       191.27272      977.47525    
     49700  -82204.264      504.26252     -81700.002      190.97105      191.25918      977.86686    
     49800  -82168.076      505.20286     -81662.873      190.95575      191.24561      978.25848    
     49900  -82129.219      503.66135     -81625.557      190.94038      191.232        978.6501     
     50000  -82084.753      496.57273     -81588.181      190.9251       191.21854      979.04171    
     50100  -82052.16       501.44547     -81550.714      190.90947      191.20479      979.43333    
     50200  -82005.987      494.00937     -81511.978      190.89379      191.19105      979.82495    
     50300  -81976.022      501.35747     -81474.665      190.87832      191.17751      980.21656    
     50400  -81936.789      499.43661     -81437.352      190.86259      191.1632       980.60818    
     50500  -81892.144      498.09639     -81394.048      190.84695      191.14896      980.9998     
     50600  -81851.163      503.1434      -81348.02       190.83151      191.13453      981.39141    
     50700  -81809.093      502.53117     -81306.562      190.81557      191.11945      981.78303    
     50800  -81772.867      497.22025     -81275.647      190.80068      191.10486      982.17465    
     50900  -81737.994      499.21113     -81238.782      190.78482      191.08906      982.56626    
     51000  -81701.065      504.35709     -81196.707      190.76991      191.07397      982.95788    
     51100  -81653.234      498.31364     -81154.921      190.75456      191.05807      983.3495     
     51200  -81618.615      499.24451     -81119.37       190.73958      191.04226      983.74111    
     51300  -81586.873      500.92212     -81085.951      190.72508      191.0267       984.13273    
     51400  -81545.657      500.60764     -81045.049      190.71003      191.01039      984.52435    
     51500  -81504.107      503.8474      -81000.259      190.6959       190.99476      984.91596    
     51600  -81459.249      507.01389     -80952.235      190.68129      190.97876      985.30758    
     51700  -81414.711      506.17808     -80908.533      190.66692      190.96278      985.6992     
     51800  -81380.99       501.9378      -80879.052      190.65294      190.94749      986.09081    
     51900  -81344.288      500.63744     -80843.651      190.63803      190.93125      986.48243    
     52000  -81305.471      498.39515     -80807.076      190.62447      190.91653      986.87405    
     52100  -81268.453      500.14016     -80768.313      190.60878      190.89974      987.26566    
     52200  -81228.157      501.90944     -80726.248      190.59543      190.88559      987.65728    
     52300  -81185.063      505.01651     -80680.046      190.57989      190.86946      988.0489     
     52400  -81144.234      506.17633     -80638.058      190.56597      190.85514      988.44051    
     52500  -81102.62       496.65041     -80605.969      190.55098      190.83991      988.83213    
     52600  -81067.404      498.86839     -80568.536      190.53588      190.825        989.22375    
     52700  -81030.528      502.08571     -80528.442      190.52162      190.8108       989.61536    
     52800  -80988.067      498.64824     -80489.419      190.50588      190.79557      990.00698    
     52900  -80952.992      497.75589     -80455.236      190.49153      190.78208      990.3986     
     53000  -80911.322      494.21471     -80417.107      190.47559      190.76706      990.79021    
     53100  -80864.564      494.96562     -80369.599      190.46083      190.7535       991.18183    
     53200  -80829.301      506.14218     -80323.159      190.4451       190.7391       991.57345    
     53300  -80787.035      503.27945     -80283.755      190.42963      190.72516      991.96506    
     53400  -80746.153      498.69673     -80247.456      190.41403      190.71125      992.35668    
     53500  -80715.822      504.79147     -80211.031      190.39807      190.69696      992.7483     
     53600  -80673.649      501.73318     -80171.916      190.38328      190.68352      993.13991    
     53700  -80634.694      502.18903     -80132.505      190.36708      190.66854      993.53153    
     53800  -80595.419      497.59723     -80097.822      190.35191      190.65429      993.92315    
     53900  -80557.433      499.1501      -80058.283      190.33686      190.63989      994.31476    
     54000  -80510.799      501.19139     -80009.608      190.32141      190.6245       994.70638    
     54100  -80466.92       504.75396     -79962.166      190.30682      190.60947      995.098      
     54200  -80425.248      502.26982     -79922.978      190.29154      190.59378      995.48961    
     54300  -80389.281      503.68278     -79885.599      190.27681      190.57804      995.88123    
     54400  -80348.688      501.90753     -79846.781      190.26167      190.56183      996.27285    
     54500  -80305.092      496.85575     -79808.236      190.24662      190.5454       996.66446    
     54600  -80273.28       503.42252     -79769.857      190.23236      190.52963      997.05608    
     54700  -80234.602      503.78946     -79730.813      190.21646      190.51194      997.4477     
     54800  -80192.38       502.56923     -79689.81       190.20294      190.49652      997.83931    
     54900  -80151.953      502.96715     -79648.986      190.18743      190.47909      998.23093    
     55000  -80112.545      503.41393     -79609.131      190.17295      190.46284      998.62255    
     55100  -80075.644      504.51837     -79571.126      190.15789      190.44613      999.01416    
     55200  -80026.654      494.61473     -79532.039      190.143        190.42993      999.40578    
     55300  -79992.921      502.46362     -79490.457      190.12847      190.41401      999.7974     
     55400  -79951.994      502.71494     -79449.279      190.11263      190.39743      1000.189     
     55500  -79908.131      499.13436     -79408.997      190.09814      190.38248      1000.5806    
     55600  -79869.958      498.8588      -79371.1        190.08188      190.36616      1000.9722    
     55700  -79830.457      495.61589     -79334.841      190.06647      190.35098      1001.3639    
     55800  -79797.066      501.91349     -79295.153      190.05093      190.33595      1001.7555    
     55900  -79751.852      497.54207     -79254.31       190.03426      190.32002      1002.1471    
     56000  -79707.307      498.10855     -79209.198      190.01889      190.30558      1002.5387    
     56100  -79663.513      501.69349     -79161.82       190.00186      190.28975      1002.9303    
     56200  -79623.828      504.98668     -79118.841      189.98562      190.27462      1003.3219    
     56300  -79587.267      502.44472     -79084.822      189.96899      190.2595       1003.7136    
     56400  -79546.684      501.53562     -79045.148      189.95206      190.24396      1004.1052    
     56500  -79504.768      501.59771     -79003.17       189.93506      190.22861      1004.4968    
     56600  -79464.093      500.61358     -78963.479      189.91837      190.21364      1004.8884    
     56700  -79426.99       498.71429     -78928.275      189.90027      190.19754      1005.28      
     56800  -79385.222      499.51796     -78885.704      189.88347      190.1826       1005.6716    
     56900  -79343.415      502.57108     -78840.844      189.86518      190.16619      1006.0633    
     57000  -79301.978      504.20053     -78797.778      189.8481       190.15096      1006.4549    
     57100  -79266.166      505.4139      -78760.752      189.83002      190.13452      1006.8465    
     57200  -79225.217      501.44566     -78723.771      189.81272      190.11845      1007.2381    
     57300  -79181.772      501.1801      -78680.592      189.79559      190.10214      1007.6297    
     57400  -79142.986      503.99099     -78638.995      189.7782       190.08509      1008.0213    
     57500  -79102.214      501.36852     -78600.846      189.76186      190.06875      1008.413     
     57600  -79063.031      501.39652     -78561.635      189.74513      190.05162      1008.8046    
     57700  -79014.068      495.0418      -78519.026      189.7288       190.03454      1009.1962    
     57800  -78976.631      500.89034     -78475.741      189.71245      190.01715      1009.5878    
     57900  -78939.714      500.5379      -78439.176      189.69694      190.0003       1009.9794    
     58000  -78898.741      498.25228     -78400.488      189.68055      189.9824       1010.371     
     58100  -78857.952      503.3084      -78354.644      189.66539      189.96561      1010.7627    
     58200  -78816.213      506.80904     -78309.404      189.64898      189.9474       1011.1543    
     58300  -78770.808      503.31557     -78267.493      189.63378      189.93009      1011.5459    
     58400  -78729.767      498.82572     -78230.941      189.61843      189.91289      1011.9375    
     58500  -78692.599      503.2725      -78189.326      189.6025       189.89515      1012.3291    
     58600  -78649.033      502.09441     -78146.938      189.58693      189.8779       1012.7207    
     58700  -78608.44       501.97993     -78106.46       189.5711       189.86054      1013.1124    
     58800  -78566.053      495.1027      -78070.951      189.55561      189.84375      1013.504     
     58900  -78527.634      502.13371     -78025.501      189.53909      189.82594      1013.8956    
     59000  -78482.932      503.7463      -77979.186      189.52406      189.80999      1014.2872    
     59100  -78439.227      502.9855      -77936.242      189.50743      189.7925       1014.6788    
     59200  -78402.868      502.87052     -77899.997      189.49148      189.77623      1015.0704    
     59300  -78355.664      498.30754     -77857.357      189.47544      189.76027      1015.4621    
     59400  -78312.28       499.74771     -77812.532      189.45795      189.74324      1015.8537    
     59500  -78275.632      504.70166     -77770.931      189.44168      189.72791      1016.2453    
     59600  -78232.118      497.56904     -77734.549      189.42416      189.71167      1016.6369    
     59700  -78192.651      502.65027     -77690.001      189.40755      189.6965       1017.0285    
     59800  -78144.961      500.03274     -77644.928      189.39003      189.68078      1017.4201    
     59900  -78108.969      505.81536     -77603.154      189.37201      189.66489      1017.8118    
     60000  -78060.584      496.03962     -77564.544      189.35512      189.65009      1018.2034    
     60100  -78016.843      496.96466     -77519.878      189.33634      189.63338      1018.595     
     60200  -77980.222      506.24027     -77473.982      189.32021      189.61929      1018.9866    
     60300  -77932.03       501.509       -77430.521      189.30072      189.60157      1019.3782    
     60400  -77892.307      504.43603     -77387.871      189.28483      189.58705      1019.7698    
     60500  -77850.647      505.73683     -77344.91       189.26577      189.56897      1020.1615    
     60600  -77809.628      507.61529     -77302.012      189.24991      189.55368      1020.5531    
     60700  -77761.528      500.44042     -77261.087      189.2316       189.5357       1020.9447    
     60800  -77720.978      502.63212     -77218.346      189.21532      189.51955      1021.3363    
     60900  -77678.247      502.31538     -77175.932      189.19765      189.50166      1021.7279    
     61000  -77636.91       503.21288     -77133.697      189.18159      189.48517      1022.1195    
     61100  -77598.355      506.98792     -77091.367      189.16483      189.46755      1022.5112    
     61200  -77546.258      498.05888     -77048.199      189.14803      189.45006      1022.9028    
     61300  -77506.434      501.2705      -77005.163      189.13226      189.43365      1023.2944    
     61400  -77459.843      498.2033      -76961.64       189.11488      189.41562      1023.686     
     61500  -77415.265      498.40559     -76916.86       189.09944      189.39934      1024.0776    
     61600  -77377.271      503.98017     -76873.291      189.08254      189.38148      1024.4692    
     61700  -77337.912      508.36421     -76829.548      189.067        189.36493      1024.8609    
     61800  -77286.174      499.93281     -76786.242      189.04997      189.34681      1025.2525    
     61900  -77245.076      503.26313     -76741.812      189.03444      189.33037      1025.6441    
     62000  -77200.946      502.84019     -76698.106      189.01778      189.31271      1026.0357    
     62100  -77155.023      501.06548     -76653.957      189.00172      189.29542      1026.4273    
     62200  -77115.073      505.29021     -76609.783      188.98564      189.27834      1026.8189    
     62300  -77070.734      505.75679     -76564.978      188.96908      189.26079      1027.2106    
     62400  -77021.81       502.79118     -76519.018      188.95269      189.24354      1027.6022    
     62500  -76982.19       507.50298     -76474.687      188.93611      189.22632      1027.9938    
     62600  -76932.627      503.15935     -76429.468      188.91918      189.20861      1028.3854    
     62700  -76888.645      504.02897     -76384.616      188.90259      189.19156      1028.777     
     62800  -76845.214      505.05692     -76340.158      188.88556      189.17418      1029.1686    
     62900  -76796.095      500.86996     -76295.225      188.86836      189.15685      1029.5603    
     63000  -76754.25       502.95701     -76251.293      188.85147      189.13996      1029.9519    
     63100  -76710.499      503.54493     -76206.954      188.83347      189.12209      1030.3435    
     63200  -76665.943      504.80988     -76161.134      188.81706      189.10605      1030.7351    
     63300  -76620.695      504.46333     -76116.232      188.79889      189.0883       1031.1267    
     63400  -76572.832      502.28506     -76070.547      188.78241      189.0723       1031.5183    
     63500  -76530.041      506.67824     -76023.362      188.76427      189.0546       1031.91      
     63600  -76484.764      507.63352     -75977.13       188.74821      189.03912      1032.3016    
     63700  -76434.163      502.95507     -75931.208      188.72982      189.0215       1032.6932    
     63800  -76388.011      502.86335     -75885.148      188.71381      189.00649      1033.0848    
     63900  -76339.374      499.43556     -75839.938      188.69532      188.98914      1033.4764    
     64000  -76300.49       506.82702     -75793.663      188.67955      188.97454      1033.868     
     64100  -76248.354      501.32139     -75747.033      188.66091      188.95722      1034.2597    
     64200  -76203.734      503.42665     -75700.307      188.64499      188.94264      1034.6513    
     64300  -76163.621      510.90349     -75652.718      188.62716      188.92605      1035.0429    
     64400  -76104.516      501.15849     -75603.358      188.61094      188.91094      1035.4345    
     64500  -76056.904      501.4538      -75555.45       188.59366      188.89479      1035.8261    
     64600  -76013.404      505.34956     -75508.054      188.57761      188.8796       1036.2177    
     64700  -75963.36       502.33427     -75461.026      188.56083      188.86341      1036.6094    
     64800  -75921.822      508.35811     -75413.463      188.54494      188.84784      1037.001     
     64900  -75869.798      504.05488     -75365.744      188.52862      188.83157      1037.3926    
     65000  -75823.392      505.62214     -75317.77       188.51369      188.81623      1037.7842    
     65100  -75770.684      501.35016     -75269.334      188.49731      188.79918      1038.1758    
     65200  -75726.301      506.53471     -75219.766      188.48314      188.7841       1038.5674    
     65300  -75672.824      502.58649     -75170.238      188.46705      188.76701      1038.9591    
     65400  -75626.651      506.68628     -75119.965      188.45317      188.75193      1039.3507    
     65500  -75570.71       500.07749     -75070.632      188.43713      188.73456      1039.7423    
     65600  -75528.375      507.36501     -75021.01       188.42348      188.71969      1040.1339    
     65700  -75475.953      504.37857     -74971.575      188.40803      188.70294      1040.5255    
     65800  -75425.12       503.89507     -74921.225      188.39352      188.68726      1040.9172    
     65900  -75375.436      503.78434     -74871.651      188.37845      188.67124      1041.3088    
     66000  -75329.281      507.61657     -74821.664      188.36339      188.65547      1041.7004    
     66100  -75275.357      504.19593     -74771.161      188.34872      188.64003      1042.092     
     66200  -75224.352      504.52562     -74719.826      188.33313      188.62383      1042.4836    
     66300  -75168.733      499.30097     -74669.432      188.31928      188.60913      1042.8752    
     66400  -75118.507      499.20763     -74619.3        188.30315      188.59228      1043.2669    
     66500  -75074.715      507.18718     -74567.528      188.28969      188.5783       1043.6585    
     66600  -75018.493      503.6675      -74514.825      188.27324      188.56131      1044.0501    
     66700  -74969.919      506.1664      -74463.753      188.26042      188.54817      1044.4417    
     66800  -74914.901      501.91298     -74412.988      188.24407      188.53171      1044.8333    
     66900  -74861.345      500.03273     -74361.312      188.23073      188.5183       1045.2249    
     67000  -74813.726      504.70453     -74309.021      188.21482      188.50251      1045.6166    
     67100  -74758.77       505.17134     -74253.599      188.20133      188.48941      1046.0082    
     67200  -74707.832      506.17749     -74201.654      188.18539      188.47413      1046.3998    
     67300  -74647.083      499.12192     -74147.961      188.17197      188.46144      1046.7914    
     67400  -74598.41       504.41157     -74093.998      188.15621      188.44661      1047.183     
     67500  -74544.676      503.9947      -74040.681      188.14263      188.43392      1047.5746    
     67600  -74488.503      501.22628     -73987.276      188.12744      188.41965      1047.9663    
     67700  -74441.076      507.91178     -73933.164      188.11379      188.40697      1048.3579    
     67800  -74383.625      505.76321     -73877.861      188.09859      188.39267      1048.7495    
     67900  -74332.227      508.47719     -73823.749      188.08533      188.38018      1049.1411    
     68000  -74277.546      508.92841     -73768.618      188.0702       188.36572      1049.5327    
     68100  -74217.216      503.88775     -73713.328      188.05684      188.35295      1049.9243    
     68200  -74164.739      506.0667      -73658.673      188.04256      188.33915      1050.316     
     68300  -74106.786      503.065       -73603.721      188.0286       188.3255       1050.7076    
     68400  -74056.353      508.7829      -73547.57       188.01487      188.31203      1051.0992    
     68500  -73996.534      505.21771     -73491.316      188.00114      188.2985       1051.4908    
     68600  -73942.068      508.06305     -73434.005      187.98762      188.28517      1051.8824    
     68700  -73886.089      508.45326     -73377.636      187.97412      188.27178      1052.274     
     68800  -73829.488      507.84452     -73321.643      187.96071      188.25859      1052.6657    
     68900  -73774.069      510.0624      -73264.006      187.9476       188.24554      1053.0573    
     69000  -73711.37       504.48292     -73206.887      187.93406      188.23213      1053.4489    
     69100  -73655.384      506.22513     -73149.159      187.92172      188.2198       1053.8405    
     69200  -73599.559      506.68191     -73092.877      187.9081       188.20615      1054.2321    
     69300  -73545.786      510.34817     -73035.438      187.89647      188.19425      1054.6237    
     69400  -73477.612      501.73563     -72975.876      187.88313      188.18059      1055.0154    
     69500  -73427.6        509.91257     -72917.688      187.87158      188.1687       1055.407     
     69600  -73367.074      507.92231     -72859.152      187.85875      188.1555       1055.7986    
     69700  -73309.69       509.72125     -72799.969      187.8473       188.14341      1056.1902    
     69800  -73249.534      508.36516     -72741.169      187.83504      188.13053      1056.5818    
     69900  -73191.464      509.2465      -72682.218      187.82353      188.11842      1056.9734    
     70000  -73135.003      510.43579     -72624.567      187.81178      188.10618      1057.3651    
     70100  -73069.778      506.06327     -72563.715      187.80015      188.09417      1057.7567    
     70200  -73019.934      515.98187     -72503.952      187.78859      188.08214      1058.1483    
     70300  -72951.606      509.33346     -72442.272      187.77726      188.07042      1058.5399    
     70400  -72891.904      508.41457     -72383.49       187.76589      188.05879      1058.9315    
     70500  -72829.986      508.27239     -72321.713      187.75451      188.04714      1059.3231    
     70600  -72771.709      511.9293      -72259.779      187.74361      188.03611      1059.7148    
     70700  -72714.267      515.17496     -72199.092      187.73213      188.0244       1060.1064    
     70800  -72649.697      515.44859     -72134.248      187.72136      188.01362      1060.498     
     70900  -72583.997      513.05775     -72070.939      187.71001      188.00214      1060.8896    
     71000  -72523.321      515.32813     -72007.993      187.69924      187.99144      1061.2812    
     71100  -72459.796      514.39185     -71945.404      187.68798      187.98028      1061.6728    
     71200  -72392.194      509.92605     -71882.268      187.67726      187.96974      1062.0645    
     71300  -72333.287      512.29968     -71820.987      187.6658       187.9585       1062.4561    
     71400  -72275.571      516.85677     -71758.714      187.65513      187.94821      1062.8477    
     71500  -72211.276      515.04574     -71696.23       187.64367      187.93711      1063.2393    
     71600  -72149.183      517.37599     -71631.807      187.63328      187.92701      1063.6309    
     71700  -72083.967      518.78387     -71565.183      187.62184      187.91604      1064.0225    
     71800  -72019.613      519.71491     -71499.898      187.61131      187.90606      1064.4142    
     71900  -71957.877      522.9669      -71434.91       187.60011      187.89537      1064.8058    
     72000  -71888.653      519.34867     -71369.305      187.58957      187.8854       1065.1974    
     72100  -71825.33       522.59084     -71302.739      187.57855      187.8751       1065.589     
     72200  -71759.124      523.03044     -71236.093      187.56764      187.86485      1065.9806    
     72300  -71692.436      520.01539     -71172.42       187.55765      187.85537      1066.3722    
     72400  -71623.265      519.6121      -71103.653      187.54637      187.84459      1066.7639    
     72500  -71562.471      526.54171     -71035.929      187.53663      187.83522      1067.1555    
     72600  -71495.026      526.61194     -70968.414      187.52565      187.82452      1067.5471    
     72700  -71432.299      529.43759     -70902.862      187.51603      187.8151       1067.9387    
[...]
     81600  -87655.837      608.90025     -87046.937      187.55703      187.76483      1102.7926    
     81700  -87844.18       606.37001     -87237.81       187.56984      187.77581      1103.1842    
     81800  -88030.029      603.67784     -87426.351      187.58256      187.78672      1103.5758    
     81900  -88213.93       601.23727     -87612.693      187.59521      187.79756      1103.9674    
     82000  -88396.141      599.17024     -87796.971      187.60778      187.80834      1104.3591    
     82100  -88576.541      597.233       -87979.308      187.62028      187.81906      1104.7507    
     82200  -88755.151      595.3254      -88159.826      187.63274      187.82974      1105.1423    
     82300  -88932.015      593.37232     -88338.643      187.64517      187.8404       1105.5339    
     82400  -89107.474      591.59394     -88515.88       187.65757      187.85103      1105.9255    
     82500  -89281.606      589.97084     -88691.635      187.66996      187.86166      1106.3171    
     82600  -89454.411      588.42447     -88865.986      187.68232      187.87226      1106.7088    
     82700  -89625.962      586.97251     -89038.989      187.69468      187.88286      1107.1004    
     82800  -89796.246      585.56674     -89210.68       187.707        187.89343      1107.492     
     82900  -89965.314      584.23457     -89381.079      187.71929      187.90396      1107.8836    
     83000  -90133.102      582.9018      -89550.2        187.7315       187.91442      1108.2752    
     83100  -90299.63       581.57363     -89718.057      187.74366      187.92482      1108.6668    
     83200  -90464.912      580.23899     -89884.673      187.75578      187.93519      1109.0585    
     83300  -90628.982      578.904       -90050.078      187.76787      187.94553      1109.4501    
     83400  -90791.905      577.59136     -90214.314      187.77992      187.95583      1109.8417    
     83500  -90953.755      576.33351     -90377.422      187.79194      187.9661       1110.2333    
     83600  -91114.616      575.17051     -90539.446      187.80393      187.97633      1110.6249    
     83700  -91274.634      574.19948     -90700.434      187.81589      187.98655      1111.0165    
     83800  -91433.765      573.31875     -90860.446      187.82785      187.99677      1111.4082    
     83900  -91591.837      572.31011     -91019.527      187.83978      188.00694      1111.7998    
     84000  -91748.83       571.15003     -91177.68       187.85166      188.01709      1112.1914    
     84100  -91905.087      570.17506     -91334.912      187.86355      188.02723      1112.583     
     84200  -92060.648      569.39498     -91491.253      187.8754       188.03734      1112.9746    
     84300  -92214.624      567.95199     -91646.672      187.88725      188.04745      1113.3662    
     84400  -92363.956      564.25396     -91799.702      187.89918      188.05764      1113.7579    
     84500  -92510.046      560.85469     -91949.192      187.91114      188.06786      1114.1495    
     84600  -92653.228      557.98519     -92095.243      187.92314      188.07811      1114.5411    
     84700  -92793.511      555.44779     -92238.063      187.93521      188.08843      1114.9327    
     84800  -92930.193      552.46394     -92377.729      187.9473       188.09878      1115.3243    
     84900  -93063.959      549.71684     -92514.242      187.95947      188.10921      1115.7159    
     85000  -93194.698      547.12285     -92647.575      187.97168      188.11967      1116.1076    
     85100  -93322.064      544.37345     -92777.69       187.98398      188.13022      1116.4992    
     85200  -93446.308      541.75778     -92904.55       187.99633      188.14081      1116.8908    
     85300  -93567.161      539.04681     -93028.114      188.00878      188.15151      1117.2824    
     85400  -93684.748      536.40981     -93148.338      188.02128      188.16225      1117.674     
     85500  -93799.005      533.83444     -93265.171      188.0339       188.17311      1118.0656    
     85600  -93909.764      531.20779     -93378.556      188.04659      188.18404      1118.4573    
     85700  -94017.137      528.70302     -93488.434      188.0594       188.19509      1118.8489    
     85800  -94120.913      526.1777      -93594.735      188.07231      188.20622      1119.2405    
     85900  -94221.144      523.75194     -93697.392      188.08534      188.21748      1119.6321    
     86000  -94317.702      521.37141     -93796.331      188.09849      188.22884      1120.0237    
     86100  -94410.527      519.05014     -93891.477      188.11177      188.24034      1120.4153    
     86200  -94499.552      516.80056     -93982.751      188.12519      188.25197      1120.807     
     86300  -94584.701      514.63748     -94070.063      188.13876      188.26375      1121.1986    
     86400  -94665.843      512.53815     -94153.305      188.15248      188.27567      1121.5902    
     86500  -94742.877      510.52335     -94232.354      188.16637      188.28775      1121.9818    
     86600  -94815.681      508.61345     -94307.068      188.18043      188.3          1122.3734    
     86700  -94884.088      506.79869     -94377.29       188.19468      188.31244      1122.765     
     86800  -94947.977      505.1256      -94442.852      188.20912      188.32505      1123.1567    
     86900  -95007.4        503.79281     -94503.607      188.22366      188.33776      1123.5483    
     87000  -95062.629      502.89636     -94559.732      188.23823      188.35054      1123.9399    
     87100  -95113.467      501.9046      -94611.562      188.25291      188.36345      1124.3315    
     87200  -95159.849      500.86686     -94658.982      188.2677       188.37647      1124.7231    
     87300  -95201.758      500.09233     -94701.666      188.28263      188.38959      1125.1147    
     87400  -95239.123      499.60604     -94739.517      188.29768      188.40283      1125.5064    
     87500  -95271.902      499.21859     -94772.683      188.31287      188.41619      1125.898     
     87600  -95300.042      498.81668     -94801.225      188.32821      188.42969      1126.2896    
     87700  -95323.492      498.48911     -94825.003      188.34371      188.44332      1126.6812    
     87800  -95342.206      498.35094     -94843.855      188.35936      188.45706      1127.0728    
     87900  -95356.146      498.34642     -94857.8        188.37516      188.47094      1127.4644    
     88000  -95365.276      498.31625     -94866.96       188.3911       188.48492      1127.8561    
     88100  -95369.559      498.2309      -94871.328      188.40721      188.49902      1128.2477    
     88200  -95368.95       498.18197     -94870.768      188.42343      188.51321      1128.6393    
     88300  -95363.211      498.02453     -94865.187      188.43951      188.52722      1129.0309    
     88400  -95351.905      497.59776     -94854.307      188.45553      188.54114      1129.4225    
     88500  -95334.671      497.17053     -94837.5        188.47142      188.5549       1129.8141    
     88600  -95311.22       496.92163     -94814.299      188.48728      188.5686       1130.2058    
     88700  -95281.369      496.58781     -94784.781      188.50301      188.58216      1130.5974    
     88800  -95245.012      495.79539     -94749.217      188.5188       188.59575      1130.989     
     88900  -95201.629      494.1959      -94707.433      188.53449      188.60923      1131.3806    
     89000  -95150.917      492.31412     -94658.603      188.55023      188.62277      1131.7722    
     89100  -95092.682      490.35619     -94602.326      188.56586      188.63622      1132.1638    
     89200  -95026.701      487.66768     -94539.033      188.58157      188.64975      1132.5555    
     89300  -94952.767      483.82038     -94468.947      188.59723      188.66321      1132.9471    
     89400  -94870.714      478.88165     -94391.832      188.61293      188.67673      1133.3387    
     89500  -94780.467      472.86445     -94307.603      188.6286       188.69023      1133.7303    
     89600  -94682.069      465.52266     -94216.546      188.64422      188.70372      1134.1219    
     89700  -94575.763      456.62502     -94119.138      188.65987      188.71728      1134.5135    
     89800  -94462.098      446.13441     -94015.963      188.67541      188.73075      1134.9052    
     89900  -94341.925      434.10526     -93907.82       188.69102      188.74433      1135.2968    
     90000  -94216.349      420.64157     -93795.708      188.70634      188.75772      1135.6884    
     90100  -94086.509      405.79027     -93680.719      188.72136      188.77102      1136.08      
     90200  -94003.275      441.02835     -93562.246      188.7352       188.78361      1136.4716    
     90300  -94020.441      557.33044     -93463.11       188.731        188.77891      1136.8632    
     90400  -94064.965      582.00801     -93482.957      188.73881      188.78712      1137.2549    
     90500  -94112.149      506.00236     -93606.147      188.74451      188.79474      1137.6465    
     90600  -94144.962      463.33966     -93681.622      188.74639      188.79806      1138.0381    
     90700  -94161.157      479.17211     -93681.985      188.7531       188.80706      1138.4297    
     90800  -94184.767      532.03915     -93652.728      188.76043      188.81589      1138.8213    
     90900  -94222.451      543.41374     -93679.037      188.76897      188.82559      1139.2129    
     91000  -94314.666      536.8295      -93777.836      188.78268      188.83619      1139.6046    
     91100  -94376.787      488.19867     -93888.588      188.79583      188.85146      1139.9962    
     91200  -94415.68       474.01653     -93941.663      188.80447      188.8667       1140.3878    
     91300  -94446.122      501.33395     -93944.788      188.82471      188.88419      1140.7794    
     91400  -94460.174      519.37749     -93940.797      188.83198      188.89536      1141.171     
     91500  -94474.362      509.32684     -93965.035      188.84611      188.9071       1141.5626    
     91600  -94490.743      489.42458     -94001.318      188.86121      188.92838      1141.9543    
     91700  -94476.596      467.22266     -94009.373      188.87004      188.94222      1142.3459    
     91800  -94459.459      494.54786     -93964.911      188.88361      188.96016      1142.7375    
     91900  -94444.392      530.94035     -93913.452      188.90112      188.97949      1143.1291    
     92000  -94445.924      525.17589     -93920.748      188.91655      188.99112      1143.5207    
     92100  -94477.361      495.45165     -93981.909      188.93964      189.00454      1143.9123    
     92200  -94518.2        487.57709     -94030.623      188.97064      189.02496      1144.304     
     92300  -94549.76       493.60551     -94056.154      189.00439      189.04403      1144.6956    
     92400  -94552.467      487.78548     -94064.682      189.04054      189.06448      1145.0872    
     92500  -94547.548      494.4442      -94053.104      189.07124      189.08011      1145.4788    
     92600  -94543.514      508.9448      -94034.569      189.09816      189.10276      1145.8704    
     92700  -94544.486      520.07258     -94024.414      189.1208       189.12527      1146.262     
     92800  -94549.896      509.29017     -94040.606      189.14026      189.14826      1146.6537    
     92900  -94567.32       494.51322     -94072.807      189.15487      189.16662      1147.0453    
     93000  -94568.663      477.03711     -94091.626      189.16985      189.18521      1147.4369    
     93100  -94562.86       494.02755     -94068.833      189.18014      189.19947      1147.8285    
     93200  -94544.659      514.84875     -94029.81       189.19348      189.21469      1148.2201    
     93300  -94548.596      530.02698     -94018.569      189.20571      189.22872      1148.6117    
     93400  -94569.949      517.72061     -94052.228      189.21898      189.24601      1149.0034    
     93500  -94607.183      500.39466     -94106.789      189.2359       189.26866      1149.395     
     93600  -94622.511      475.87419     -94146.637      189.2507       189.294        1149.7866    
     93700  -94630.564      482.85637     -94147.707      189.2667       189.31978      1150.1782    
     93800  -94624.911      505.77302     -94119.138      189.2841       189.34681      1150.5698    
     93900  -94615.624      518.98211     -94096.642      189.30096      189.37123      1150.9614    
     94000  -94622.143      515.57305     -94106.57       189.31867      189.38889      1151.3531    
     94100  -94641.204      500.68257     -94140.521      189.33593      189.40938      1151.7447    
     94200  -94646.118      478.16439     -94167.954      189.35234      189.42898      1152.1363    
     94300  -94644.998      486.93423     -94158.064      189.36963      189.44668      1152.5279    
     94400  -94644.415      516.72935     -94127.686      189.38814      189.46722      1152.9195    
     94500  -94653.648      526.96628     -94126.682      189.40053      189.49108      1153.3111    
     94600  -94679.941      508.18968     -94171.751      189.41366      189.5166       1153.7028    
     94700  -94703.425      485.58851     -94217.836      189.42577      189.5418       1154.0944    
     94800  -94716.191      484.73042     -94231.461      189.43899      189.56707      1154.486     
     94900  -94718.978      503.73754     -94215.241      189.45602      189.59524      1154.8776    
     95000  -94711.339      511.76914     -94199.569      189.47233      189.61663      1155.2692    
     95100  -94716.807      511.39971     -94205.408      189.49041      189.64097      1155.6608    
     95200  -94728.963      499.21739     -94229.746      189.50458      189.66247      1156.0525    
     95300  -94745.151      492.48204     -94252.669      189.52243      189.68451      1156.4441    
     95400  -94750.664      493.1191      -94257.545      189.53669      189.70719      1156.8357    
     95500  -94744.36       503.07112     -94241.289      189.55361      189.73671      1157.2273    
     95600  -94738.481      512.05812     -94226.423      189.56724      189.76726      1157.6189    
     95700  -94746.825      511.55574     -94235.269      189.58368      189.80032      1158.0105    
     95800  -94765.349      501.73168     -94263.617      189.59706      189.83227      1158.4022    
     95900  -94777.116      489.83991     -94287.276      189.61169      189.86611      1158.7938    
     96000  -94776.721      487.31164     -94289.409      189.62443      189.89745      1159.1854    
     96100  -94765.93       495.25209     -94270.678      189.63403      189.92935      1159.577     
     96200  -94766.766      518.05182     -94248.714      189.64291      189.95998      1159.9686    
     96300  -94779.112      520.52532     -94258.587      189.65396      189.99377      1160.3602    
     96400  -94798.49       499.45898     -94299.031      189.66205      190.02153      1160.7519    
     96500  -94816.57       485.11232     -94331.458      189.67115      190.049        1161.1435    
     96600  -94820.709      486.76081     -94333.948      189.68171      190.07142      1161.5351    
     96700  -94822.583      509.88735     -94312.696      189.69672      190.08866      1161.9267    
     96800  -94819.112      517.02073     -94302.091      189.71219      190.10357      1162.3183    
     96900  -94828.665      506.75441     -94321.911      189.72835      190.11694      1162.7099    
     97000  -94843.007      492.02704     -94350.98       189.74359      190.12453      1163.1016    
     97100  -94847.951      486.52401     -94361.427      189.76032      190.13421      1163.4932    
     97200  -94844.438      497.6073      -94346.831      189.77508      190.14549      1163.8848    
     97300  -94834.136      511.18204     -94322.954      189.78808      190.15929      1164.2764    
     97400  -94833.11       516.4233      -94316.687      189.79889      190.1747       1164.668     
     97500  -94843.586      508.00697     -94335.579      189.81003      190.19112      1165.0596    
     97600  -94849.405      490.1134      -94359.292      189.81793      190.2063       1165.4513    
     97700  -94862.374      493.66938     -94368.704      189.82524      190.22283      1165.8429    
     97800  -94863.426      500.87521     -94362.551      189.82991      190.23634      1166.2345    
     97900  -94864.466      508.69248     -94355.774      189.8356       190.24729      1166.6261    
     98000  -94866.901      506.74298     -94360.158      189.84014      190.25577      1167.0177    
     98100  -94877.795      502.72699     -94375.068      189.84595      190.26023      1167.4093    
     98200  -94882.114      493.54074     -94388.574      189.85257      190.26104      1167.801     
     98300  -94884.694      496.49957     -94388.194      189.86155      190.25966      1168.1926    
     98400  -94887.738      507.58791     -94380.15       189.8698       190.25566      1168.5842    
     98500  -94890.64       509.5948      -94381.045      189.87764      190.25004      1168.9758    
     98600  -94890.919      497.38032     -94393.539      189.88591      190.24324      1169.3674    
     98700  -94900.101      499.12177     -94400.98       189.89466      190.2343       1169.759     
     98800  -94899.905      497.0279      -94402.877      189.90486      190.22705      1170.1507    
     98900  -94906.066      505.17332     -94400.892      189.91528      190.21817      1170.5423    
     99000  -94913.05       506.5769      -94406.473      189.92809      190.21042      1170.9339    
     99100  -94909.369      491.07746     -94418.291      189.93893      190.20138      1171.3255    
     99200  -94912.205      494.6549      -94417.55       189.9531       190.19564      1171.7171    
     99300  -94901.543      501.65518     -94399.888      189.96613      190.18719      1172.1087    
     99400  -94895.457      511.43484     -94384.022      189.98134      190.18041      1172.5004    
     99500  -94897.292      509.18781     -94388.104      189.99364      190.17381      1172.892     
     99600  -94901.023      497.78556     -94403.237      190.0054       190.17151      1173.2836    
     99700  -94897.888      490.17974     -94407.708      190.01572      190.1711       1173.6752    
     99800  -94895.854      498.04891     -94397.805      190.0241       190.17259      1174.0668    
     99900  -94890.121      506.64998     -94383.471      190.02775      190.17512      1174.4584    
    100000  -94880.954      503.26356     -94377.69       190.02959      190.18109      1174.8501    
Loop time of 13125.6 on 12 procs for 100000 steps with 12920 atoms

Performance: 0.658 ns/day, 36.460 hours/ns, 7.619 timesteps/s, 98.434 katom-step/s
59.4% CPU use with 12 MPI tasks x 1 OpenMP threads

MPI task timing breakdown:
Section |  min time  |  avg time  |  max time  |%varavg| %total
---------------------------------------------------------------
Pair    | 2084.7     | 2537.4     | 3078.6     | 490.9 | 19.33
Neigh   | 4.184      | 8.2093     | 11.771     |  74.7 |  0.06
Comm    | 1015.2     | 1472.6     | 1756.1     | 462.7 | 11.22
Output  | 34.802     | 35.768     | 36.634     |  10.4 |  0.27
Modify  | 7836       | 8060.6     | 8496.5     | 211.1 | 61.41
Other   |            | 1011       |            |       |  7.70

Nlocal:        1076.67 ave        1794 max           0 min
Histogram: 2 0 0 2 0 1 1 1 2 3
Nghost:        1368.25 ave        2234 max           0 min
Histogram: 2 0 0 2 0 2 0 0 3 3
Neighs:              0 ave           0 max           0 min
Histogram: 12 0 0 0 0 0 0 0 0 0

Total # of neighbors = 0
Ave neighs/atom = 0
Neighbor list builds = 684
Dangerous builds = 0
Total wall time: 3:38:50
