LAMMPS (2 Aug 2023 - Update 3)
OMP_NUM_THREADS environment is not set. Defaulting to 1 thread. (src/comm.cpp:98)
  using 1 OpenMP thread(s) per MPI task
Reading data file ...
  orthogonal box = (-100 -100 -2.331251) to (100 100 38.891558)
  3 by 4 by 1 MPI processor grid
  reading atoms ...
  920 atoms
  read_data CPU = 0.018 seconds
Replication is creating a 1x1x11 = 11 times larger system...
  orthogonal box = (-100 -100 -2.331251) to (100 100 451.11965)
  2 by 2 by 3 MPI processor grid
  10120 atoms
  replicate CPU = 0.104 seconds
2640 atoms in group SR
Deleted 2640 atoms, new total = 7480
System init for write_data ...
WARNING: Communication cutoff is 0.0. No ghost atoms will be generated. Atoms may get lost. (src/comm_brick.cpp:210)
Reading airebo potential file CH.airebo with DATE: 2011-10-25
Reading airebo potential file CH.airebo with DATE: 2011-10-25
Neighbor list info ...
  update: every = 1 steps, delay = 0 steps, check = yes
  max neighbors/atom: 2000, page size: 100000
  master list distance cutoff = 13.2
  ghost atom cutoff = 13.2
  binsize = 6.6, bins = 31 31 69
  5 neighbor lists, perpetual/occasional/extra = 5 0 0
  (1) pair airebo, perpetual, skip from (4)
      attributes: full, newton on, ghost
      pair build: skip/ghost
      stencil: none
      bin: none
  (2) pair airebo, perpetual, skip from (4)
      attributes: full, newton on, ghost
      pair build: skip/ghost
      stencil: none
      bin: none
  (3) pair lj/cut, perpetual, skip from (5)
      attributes: half, newton on, cut 13
      pair build: skip
      stencil: none
      bin: none
  (4) neighbor class addition, perpetual
      attributes: full, newton on, ghost
      pair build: full/bin/ghost
      stencil: full/ghost/bin/3d
      bin: standard
  (5) neighbor class addition, perpetual
      attributes: half, newton on, cut 13
      pair build: half/bin/atomonly/newton
      stencil: half/bin/3d
      bin: standard
Setting up sd style minimization ...
  Unit style    : metal
  Current step  : 0
Per MPI rank memory allocation (min/avg/max) = 10.23 | 10.23 | 10.23 Mbytes
   Step          Temp          E_pair         E_mol          TotEng         Press     
         0   0             -55348.819      0             -55348.819     -0.21847277   
         1   0             -55349.084      0             -55349.084     -0.39920433   
Loop time of 0.193465 on 12 procs for 1 steps with 7480 atoms

70.8% CPU use with 12 MPI tasks x 1 OpenMP threads

Minimization stats:
  Stopping criterion = energy tolerance
  Energy initial, next-to-last, final = 
     -55348.8187735571  -55348.8187735571  -55349.0843037038
  Force two-norm initial, final = 8.4934552 0.81389042
  Force max component initial, final = 0.098019031 0.0093756234
  Final line search alpha, max atom move = 1 0.0093756234
  Iterations, force evaluations = 1 2

MPI task timing breakdown:
Section |  min time  |  avg time  |  max time  |%varavg| %total
---------------------------------------------------------------
Pair    | 0.025315   | 0.032876   | 0.050516   |   4.4 | 16.99
Neigh   | 0          | 0          | 0          |   0.0 |  0.00
Comm    | 0.065544   | 0.084227   | 0.10049    |   3.3 | 43.54
Output  | 0          | 0          | 0          |   0.0 |  0.00
Modify  | 0          | 0          | 0          |   0.0 |  0.00
Other   |            | 0.07636    |            |       | 39.47

Nlocal:        623.333 ave         688 max         558 min
Histogram: 3 0 0 0 2 4 0 0 0 3
Nghost:        2303.33 ave        2377 max        2233 min
Histogram: 2 1 0 0 4 2 0 0 2 1
Neighs:              0 ave           0 max           0 min
Histogram: 12 0 0 0 0 0 0 0 0 0

Total # of neighbors = 0
Ave neighs/atom = 0
Neighbor list builds = 0
Dangerous builds = 0
Setting up Verlet run ...
  Unit style    : metal
  Current step  : 1
  Time step     : 0.001
Per MPI rank memory allocation (min/avg/max) = 10.85 | 10.86 | 10.86 Mbytes
   Step          Temp          E_pair         E_mol          TotEng         Press          Volume    
         1   300           -55349.084      0             -55059.063      16.679632      18138036     
Loop time of 0.0169524 on 12 procs for 0 steps with 7480 atoms

60.8% CPU use with 12 MPI tasks x 1 OpenMP threads

MPI task timing breakdown:
Section |  min time  |  avg time  |  max time  |%varavg| %total
---------------------------------------------------------------
Pair    | 0          | 0          | 0          |   0.0 |  0.00
Neigh   | 0          | 0          | 0          |   0.0 |  0.00
Comm    | 0          | 0          | 0          |   0.0 |  0.00
Output  | 0          | 0          | 0          |   0.0 |  0.00
Modify  | 0          | 0          | 0          |   0.0 |  0.00
Other   |            | 0.01695    |            |       |100.00

Nlocal:        623.333 ave         625 max         620 min
Histogram: 4 0 0 0 0 0 0 0 0 8
Nghost:        2303.33 ave        2315 max        2295 min
Histogram: 4 0 4 0 0 0 0 0 0 4
Neighs:              0 ave           0 max           0 min
Histogram: 12 0 0 0 0 0 0 0 0 0

Total # of neighbors = 0
Ave neighs/atom = 0
Neighbor list builds = 0
Dangerous builds = 0
WARNING: New thermo_style command, previous thermo_modify settings will be lost (src/output.cpp:903)
WARNING: Dump 2 includes no atom IDs and is not sorted by ID. This may complicate post-processing tasks or visualization (src/dump.cpp:221)
Setting up Verlet run ...
  Unit style    : metal
  Current step  : 0
  Time step     : 0.001
Per MPI rank memory allocation (min/avg/max) = 12.35 | 12.36 | 12.36 Mbytes
   Step         PotEng         KinEng         TotEng           Lx             Ly             Lz      
         0  -55349.084      290.02099     -55059.063      200            200            453.4509     
       100  -55181.211      144.30686     -55036.904      200.00522      200.00524      453.67762    
       200  -55187.953      182.16393     -55005.789      200.00215      200.00231      453.90435    
       300  -55161.916      193.19799     -54968.718      200.00797      200.00841      454.13108    
       400  -55133.997      206.07336     -54927.923      200.00419      200.00524      454.3578     
       500  -55121.041      235.86418     -54885.177      200.01022      200.01219      454.58453    
       600  -55094.123      251.63119     -54842.492      200.00414      200.00772      454.81125    
       700  -55075.412      272.58502     -54802.827      200.01042      200.01619      455.03798    
       800  -55055.467      285.0807      -54770.386      200.00397      200.01228      455.2647     
       900  -55054.103      303.89427     -54750.209      200.00903      200.01996      455.49143    
      1000  -55048.996      299.57058     -54749.425      200.00246      200.01607      455.71815    
      1100  -55053.139      288.36255     -54764.776      200.00654      200.02271      455.94488    
      1200  -55062.63       284.84054     -54777.79       200.00042      200.01907      456.1716     
      1300  -55062.542      283.74678     -54778.795      200.00343      200.02479      456.39833    
      1400  -55052.364      286.14821     -54766.216      199.99711      200.02134      456.62506    
      1500  -55044.684      292.54245     -54752.141      199.99912      200.02636      456.85178    
      1600  -55041.774      295.79663     -54745.977      199.99251      200.02212      457.07851    
      1700  -55046.198      294.07916     -54752.118      199.9956       200.02722      457.30523    
      1800  -55049.319      286.86099     -54762.458      199.98843      200.02166      457.53196    
      1900  -55049.101      283.57526     -54765.526      199.99106      200.02586      457.75868    
      2000  -55042.829      285.27223     -54757.557      199.98409      200.02024      457.98541    
      2100  -55034.386      289.3926      -54744.993      199.987        200.02414      458.21213    
      2200  -55035.019      297.56149     -54737.458      199.97982      200.01798      458.43886    
      2300  -55034.937      295.38276     -54739.554      199.98215      200.02118      458.66558    
      2400  -55034.787      286.91134     -54747.876      199.97478      200.01472      458.89231    
      2500  -55039.548      287.93764     -54751.61       199.97607      200.01681      459.11904    
      2600  -55031.442      285.84041     -54745.602      199.96972      200.01115      459.34576    
      2700  -55028.866      295.034       -54733.832      199.97009      200.01194      459.57249    
      2800  -55018.042      294.01969     -54724.022      199.96349      200.00603      459.79921    
      2900  -55015.127      292.95142     -54722.176      199.96314      200.00635      460.02594    
      3000  -55019.04       291.76249     -54727.278      199.95619      200.00081      460.25266    
      3100  -55018.055      286.05103     -54732.004      199.95417      200.00052      460.47939    
      3200  -55017.484      288.29844     -54729.186      199.947        199.99503      460.70611    
      3300  -55006.299      286.61079     -54719.689      199.94459      199.99465      460.93284    
      3400  -54999.425      289.53156     -54709.893      199.9368       199.98886      461.15956    
      3500  -54998.684      292.92839     -54705.755      199.93388      199.98829      461.38629    
      3600  -54999.232      290.86166     -54708.37       199.9257       199.98244      461.61302    
      3700  -55000.98       289.21967     -54711.761      199.9216       199.98133      461.83974    
      3800  -54992.581      282.77923     -54709.801      199.91301      199.97566      462.06647    
      3900  -54991.203      289.38344     -54701.82       199.90837      199.97409      462.29319    
      4000  -54982.325      290.0871      -54692.238      199.90008      199.96866      462.51992    
      4100  -54976.049      289.40803     -54686.641      199.89437      199.96598      462.74664    
      4200  -54978.633      293.1099      -54685.523      199.88584      199.9606       462.97337    
      4300  -54973.019      286.99327     -54686.026      199.87983      199.95726      463.20009    
      4400  -54970.814      287.11522     -54683.699      199.87123      199.95182      463.42682    
      4500  -54963.429      286.00891     -54677.42       199.86511      199.94826      463.65354    
      4600  -54960.622      291.25037     -54669.372      199.85586      199.94157      463.88027    
      4700  -54954.03       290.66426     -54663.366      199.84948      199.93727      464.107      
      4800  -54953.97       292.93998     -54661.03       199.84032      199.92986      464.33372    
      4900  -54949.901      288.8708      -54661.03       199.83352      199.92446      464.56045    
      5000  -54942.827      283.48794     -54659.339      199.82432      199.91602      464.78717    
      5100  -54939.591      286.33989     -54653.251      199.81706      199.9095       465.0139     
      5200  -54934.741      290.76842     -54643.972      199.80778      199.90062      465.24062    
      5300  -54927.951      292.64911     -54635.302      199.79982      199.89323      465.46735    
      5400  -54923.565      293.06367     -54630.501      199.79023      199.88393      465.69407    
      5500  -54921.291      290.26916     -54631.021      199.7818       199.87604      465.9208     
      5600  -54918.111      287.04164     -54631.069      199.77132      199.86615      466.14752    
      5700  -54910.378      283.7238      -54626.654      199.76284      199.85821      466.37425    
      5800  -54905.22       287.03244     -54618.187      199.75184      199.84785      466.60098    
      5900  -54899.534      290.8424      -54608.692      199.74265      199.83945      466.8277     
      6000  -54896.157      294.85723     -54601.3        199.73043      199.82872      467.05443    
      6100  -54889.905      292.55825     -54597.347      199.72053      199.81994      467.28115    
      6200  -54885.543      289.43826     -54596.105      199.70796      199.80911      467.50788    
      6300  -54881.482      287.21646     -54594.265      199.69659      199.79959      467.7346     
      6400  -54878.445      290.4016      -54588.043      199.68331      199.78865      467.96133    
      6500  -54867.079      289.22908     -54577.85       199.67059      199.77862      468.18805    
      6600  -54861.991      292.99206     -54568.999      199.6572       199.76796      468.41478    
      6700  -54855.925      291.74457     -54564.18       199.64281      199.75679      468.6415     
      6800  -54855.909      294.28516     -54561.623      199.62876      199.74585      468.86823    
      6900  -54846.483      287.688       -54558.795      199.61362      199.73429      469.09496    
      7000  -54841.661      288.88738     -54552.774      199.59858      199.72299      469.32168    
      7100  -54833.108      289.5115      -54543.597      199.58311      199.71102      469.54841    
      7200  -54824.101      288.44922     -54535.652      199.56802      199.69962      469.77513    
      7300  -54818.838      288.95319     -54529.885      199.55123      199.68588      470.00186    
      7400  -54817.118      291.91937     -54525.198      199.53644      199.67393      470.22858    
      7500  -54809.823      289.3764      -54520.447      199.51925      199.65956      470.45531    
      7600  -54804.684      290.51335     -54514.17       199.50337      199.64618      470.68203    
      7700  -54793.051      287.64874     -54505.402      199.48538      199.63089      470.90876    
      7800  -54785.255      289.77605     -54495.479      199.46893      199.61637      471.13548    
      7900  -54778.441      291.22405     -54487.217      199.45115      199.60072      471.36221    
      8000  -54773.724      290.63488     -54483.09       199.43378      199.5846       471.58893    
      8100  -54768.457      287.82839     -54480.629      199.41548      199.56759      471.81566    
      8200  -54763.986      288.60833     -54475.378      199.39698      199.55022      472.04239    
      8300  -54754.999      289.38084     -54465.618      199.37849      199.53287      472.26911    
      8400  -54745.395      291.01704     -54454.378      199.35861      199.51452      472.49584    
      8500  -54736.399      290.23162     -54446.167      199.33851      199.49612      472.72256    
      8600  -54733.86       291.43895     -54442.421      199.31746      199.47761      472.94929    
      8700  -54725.889      286.58004     -54439.309      199.29546      199.4582       473.17601    
      8800  -54720.426      287.99587     -54432.431      199.27383      199.4401       473.40274    
      8900  -54711.506      289.55402     -54421.952      199.25006      199.42016      473.62946    
      9000  -54701.475      290.36587     -54411.109      199.22714      199.4015       473.85619    
      9100  -54692.338      290.5211      -54401.817      199.2019       199.38105      474.08291    
      9200  -54686.679      290.08191     -54396.597      199.1781       199.36195      474.30964    
      9300  -54683.328      290.65794     -54392.67       199.15083      199.33994      474.53637    
      9400  -54676.942      289.74479     -54387.197      199.12653      199.32058      474.76309    
      9500  -54666.548      290.59604     -54375.952      199.09786      199.29728      474.98982    
      9600  -54652.827      291.46926     -54361.357      199.0729       199.2773       475.21654    
      9700  -54643.607      289.69036     -54353.917      199.04267      199.2522       475.44327    
      9800  -54639.896      290.0615      -54349.834      199.01673      199.23108      475.66999    
      9900  -54633.684      289.67922     -54344.005      198.98544      199.20462      475.89672    
     10000  -54623.695      287.7564      -54335.938      198.95826      199.182        476.12344    
     10100  -54616.135      289.28491     -54326.85       198.92632      199.15394      476.35017    
     10200  -54606.176      289.00081     -54317.176      198.8983       199.12975      476.57689    
     10300  -54598.718      291.73511     -54306.983      198.866        199.10047      476.80362    
     10400  -54585.11       292.35438     -54292.756      198.83669      199.0744       477.03035    
     10500  -54578.676      296.12922     -54282.547      198.80382      199.04395      477.25707    
     10600  -54573.143      292.93884     -54280.204      198.77326      199.0162       477.4838     
     10700  -54562.169      287.221       -54274.948      198.73915      198.98466      477.71052    
     10800  -54560.019      292.63991     -54267.38       198.70713      198.95503      477.93725    
     10900  -54550.861      292.5243      -54258.336      198.67193      198.92243      478.16397    
     11000  -54533.426      288.66585     -54244.76       198.63832      198.89098      478.3907     
     11100  -54523.794      292.907       -54230.887      198.60239      198.85802      478.61742    
     11200  -54515.974      291.62804     -54224.346      198.56605      198.82481      478.84415    
     11300  -54511.507      291.35242     -54220.154      198.52895      198.79136      479.07087    
     11400  -54499.417      287.08725     -54212.329      198.49073      198.75734      479.2976     
     11500  -54494.316      291.83522     -54202.48       198.45169      198.72342      479.52433    
     11600  -54482.721      290.78293     -54191.938      198.41154      198.68878      479.75105    
     11700  -54474.937      294.93908     -54179.998      198.37101      198.65386      479.97778    
     11800  -54461.149      292.94071     -54168.209      198.32956      198.61902      480.2045     
     11900  -54451.455      289.25268     -54162.202      198.2875       198.58365      480.43123    
     12000  -54448.721      290.92031     -54157.8        198.24417      198.54753      480.65795    
     12100  -54435.726      286.95293     -54148.773      198.20152      198.512        480.88468    
     12200  -54425.764      289.74102     -54136.023      198.15616      198.47375      481.1114     
     12300  -54412.435      292.68486     -54119.75       198.11308      198.43788      481.33813    
     12400  -54399.106      291.9318      -54107.174      198.0667       198.39809      481.56485    
     12500  -54388.58       288.94185     -54099.638      198.02329      198.36079      481.79158    
     12600  -54381.845      287.95913     -54093.886      197.97621      198.31932      482.01831    
     12700  -54375.081      287.5925      -54087.489      197.93235      198.28062      482.24503    
     12800  -54364.812      287.49425     -54077.318      197.88484      198.23754      482.47176    
     12900  -54353.525      291.18929     -54062.335      197.84052      198.19728      482.69848    
     13000  -54339.474      292.42112     -54047.053      197.79294      198.15296      482.92521    
     13100  -54331.31       291.84954     -54039.461      197.74805      198.11116      483.15193    
     13200  -54324.481      291.85534     -54032.625      197.70002      198.06582      483.37866    
     13300  -54310.185      286.86509     -54023.32       197.65525      198.02338      483.60538    
     13400  -54299.831      288.0736      -54011.757      197.60649      197.97699      483.83211    
     13500  -54290.926      292.58239     -53998.344      197.56125      197.93429      484.05883    
     13600  -54274.237      293.28281     -53980.954      197.51167      197.88793      484.28556    
     13700  -54263.813      292.5235      -53971.29       197.46564      197.84543      484.51229    
     13800  -54257.481      290.63634     -53966.845      197.41445      197.79888      484.73901    
     13900  -54247.64       290.11427     -53957.525      197.36711      197.75653      484.96574    
     14000  -54238.134      290.20081     -53947.933      197.31548      197.7111       485.19246    
     14100  -54226.065      288.31879     -53937.746      197.26651      197.66889      485.41919    
     14200  -54213.085      288.72912     -53924.356      197.21453      197.62388      485.64591    
     14300  -54200.448      292.32878     -53908.119      197.16481      197.58219      485.87264    
     14400  -54190.931      294.35919     -53896.571      197.11209      197.53758      486.09936    
     14500  -54180.384      288.16102     -53892.223      197.06213      197.49622      486.32609    
     14600  -54173.111      289.66705     -53883.444      197.0097       197.45192      486.55281    
     14700  -54157.23       287.07329     -53870.157      196.96024      197.41068      486.77954    
     14800  -54149.472      295.16642     -53854.305      196.90812      197.36645      487.00627    
     14900  -54132.203      291.83708     -53840.366      196.85912      197.32514      487.23299    
     15000  -54119.337      289.55195     -53829.785      196.80794      197.2811       487.45972    
     15100  -54114.105      286.82747     -53827.278      196.75914      197.23872      487.68644    
     15200  -54102.53       286.74861     -53815.781      196.70973      197.1949       487.91317    
     15300  -54086.378      287.53587     -53798.843      196.66173      197.15141      488.13989    
     15400  -54073.019      290.02465     -53782.994      196.61397      197.10741      488.36662    
     15500  -54061.474      291.60184     -53769.872      196.56673      197.06304      488.59334    
     15600  -54049.499      290.18529     -53759.314      196.52049      197.01929      488.82007    
     15700  -54042.408      287.51699     -53754.891      196.47382      196.97459      489.04679    
     15800  -54030.914      286.16881     -53744.745      196.42937      196.93181      489.27352    
     15900  -54016.401      287.74243     -53728.659      196.38322      196.88719      489.50025    
     16000  -54003.139      290.30698     -53712.832      196.33999      196.8457       489.72697    
     16100  -53988.65       288.92425     -53699.725      196.29416      196.80216      489.9537     
     16200  -53980.681      292.95253     -53687.729      196.25163      196.76194      490.18042    
     16300  -53962.028      285.94066     -53676.087      196.20632      196.71993      490.40715    
     16400  -53956.59       290.36248     -53666.228      196.16396      196.68083      490.63387    
     16500  -53942.74       288.1279      -53654.612      196.11919      196.64032      490.8606     
     16600  -53928.961      290.18492     -53638.776      196.07723      196.60298      491.08732    
     16700  -53909.362      288.11046     -53621.252      196.03279      196.56354      491.31405    
     16800  -53899.231      291.68895     -53607.542      195.99115      196.52784      491.54077    
     16900  -53889.451      290.23958     -53599.211      195.94742      196.48987      491.7675     
     17000  -53880.864      287.7417      -53593.122      195.90655      196.45559      491.99423    
     17100  -53863.947      285.38796     -53578.559      195.86331      196.41902      492.22095    
     17200  -53853.889      292.66751     -53561.222      195.82315      196.38571      492.44768    
     17300  -53835.288      289.65962     -53545.628      195.78156      196.35094      492.6744     
     17400  -53824.825      291.78517     -53533.04       195.74205      196.31793      492.90113    
     17500  -53814.04       289.05104     -53524.989      195.70189      196.28392      493.12785    
     17600  -53802.881      285.13727     -53517.744      195.66378      196.25117      493.35458    
     17700  -53787.193      286.25482     -53500.938      195.62586      196.21814      493.5813     
     17800  -53770.652      287.25856     -53483.394      195.58906      196.18514      493.80803    
     17900  -53759.314      292.17595     -53467.138      195.55335      196.15256      494.03475    
     18000  -53744.105      292.16061     -53451.944      195.51769      196.11959      494.26148    
     18100  -53729.815      290.04494     -53439.77       195.48395      196.08766      494.48821    
     18200  -53718.046      285.65225     -53432.393      195.44931      196.05451      494.71493    
     18300  -53708.375      287.76897     -53420.606      195.41769      196.02353      494.94166    
     18400  -53692.543      290.99012     -53401.553      195.38428      195.99079      495.16838    
     18500  -53673.908      289.18781     -53384.72       195.35393      195.96086      495.39511    
     18600  -53662.876      291.17174     -53371.704      195.32173      195.92905      495.62183    
     18700  -53651.176      290.18037     -53360.996      195.29218      195.90013      495.84856    
     18800  -53633.009      282.7468      -53350.262      195.26033      195.86929      496.07528    
     18900  -53627.704      290.27787     -53337.426      195.23173      195.84209      496.30201    
     19000  -53605.9        288.35511     -53317.545      195.20009      195.81219      496.52873    
     19100  -53592.357      293.27256     -53299.084      195.17187      195.78628      496.75546    
     19200  -53571.12       287.04102     -53284.079      195.14083      195.75784      496.98219    
     19300  -53560.698      289.32303     -53271.375      195.11197      195.7326       497.20891    
     19400  -53549.157      285.75705     -53263.4        195.08168      195.70609      497.43564    
     19500  -53538.206      286.59578     -53251.61       195.05211      195.68089      497.66236    
     19600  -53518.116      284.25047     -53233.866      195.02315      195.65646      497.88909    
     19700  -53508.825      292.85518     -53215.97       194.99298      195.63118      498.11581    
     19800  -53492.856      291.73936     -53201.116      194.96508      195.6084       498.34254    
     19900  -53478.135      290.31559     -53187.819      194.93479      195.58331      498.56926    
     20000  -53467.412      292.65956     -53174.752      194.90752      195.56118      498.79599    
     20100  -53447.666      286.9221      -53160.744      194.87865      195.53704      499.02271    
     20200  -53435.453      290.25914     -53145.194      194.852        195.51469      499.24944    
     20300  -53420.955      294.39918     -53126.556      194.82421      195.49075      499.47617    
     20400  -53402.609      293.25284     -53109.356      194.79895      195.46835      499.70289    
     20500  -53386.132      291.12074     -53095.011      194.77215      195.44402      499.92962    
     20600  -53375.308      288.48428     -53086.824      194.74854      195.42164      500.15634    
     20700  -53361.682      286.98156     -53074.7        194.72282      195.39646      500.38307    
     20800  -53346.585      289.19316     -53057.392      194.70071      195.37385      500.60979    
     20900  -53329.927      293.05061     -53036.876      194.67625      195.3479       500.83652    
     21000  -53307.941      287.20998     -53020.731      194.65538      195.32512      501.06324    
     21100  -53297.463      290.17031     -53007.293      194.63171      195.29939      501.28997    
     21200  -53283.385      288.35008     -52995.035      194.61086      195.27643      501.51669    
     21300  -53271.727      290.46234     -52981.264      194.58797      195.25165      501.74342    
     21400  -53254.981      289.12083     -52965.86       194.56721      195.22932      501.97015    
     21500  -53236.37       290.35773     -52946.012      194.54381      195.20528      502.19687    
     21600  -53221.335      293.6152      -52927.72       194.5233       195.18464      502.4236     
     21700  -53206.606      292.1064      -52914.5        194.49888      195.16097      502.65032    
     21800  -53193.526      288.52819     -52904.997      194.47774      195.14125      502.87705    
     21900  -53176.236      284.8511      -52891.385      194.45292      195.1189       503.10377    
     22000  -53158.881      286.37583     -52872.505      194.43079      195.10006      503.3305     
     22100  -53142.874      288.37167     -52854.503      194.40593      195.07919      503.55722    
     22200  -53129.063      290.13503     -52838.928      194.3825       195.06033      503.78395    
     22300  -53114.732      290.2307      -52824.502      194.35779      195.04104      504.01067    
     22400  -53099.999      289.15894     -52810.84       194.33359      195.02249      504.2374     
     22500  -53083.154      287.74627     -52795.407      194.30949      195.00427      504.46413    
     22600  -53067.58       292.8146      -52774.765      194.2851       194.986        504.69085    
     22700  -53048.67       293.28161     -52755.389      194.26187      194.96847      504.91758    
     22800  -53035.678      294.41998     -52741.258      194.23748      194.94956      505.1443     
     22900  -53019.903      288.23656     -52731.667      194.21514      194.93182      505.37103    
     23000  -53003.014      285.54383     -52717.47       194.19134      194.91175      505.59775    
     23100  -52984.936      285.25104     -52699.685      194.17093      194.894        505.82448    
     23200  -52967.32       287.14782     -52680.172      194.14732      194.87188      506.0512     
     23300  -52948.61       288.66746     -52659.943      194.12829      194.85334      506.27793    
     23400  -52932.753      290.39152     -52642.362      194.10605      194.83038      506.50465    
     23500  -52920.567      291.18315     -52629.384      194.0874       194.81021      506.73138    
     23600  -52905.989      284.97345     -52621.016      194.06594      194.78678      506.95811    
     23700  -52886.668      282.96018     -52603.708      194.04761      194.76569      507.18483    
     23800  -52874.09       290.97001     -52583.12       194.02731      194.74286      507.41156    
     23900  -52855.032      291.87482     -52563.157      194.00805      194.72077      507.63828    
     24000  -52836.747      291.23127     -52545.516      193.98848      194.69879      507.86501    
     24100  -52820.917      290.12917     -52530.788      193.96829      194.67639      508.09173    
     24200  -52810.955      288.70556     -52522.249      193.94856      194.65526      508.31846    
     24300  -52792.963      286.25855     -52506.705      193.92761      194.6335       508.54518    
     24400  -52773.611      288.55179     -52485.059      193.90722      194.61299      508.77191    
     24500  -52753.352      288.23186     -52465.12       193.88523      194.59176      508.99863    
     24600  -52737.696      290.98771     -52446.708      193.86418      194.57223      509.22536    
     24700  -52722.273      292.97179     -52429.301      193.84118      194.55175      509.45209    
     24800  -52702.096      289.6046      -52412.491      193.81919      194.53317      509.67881    
     24900  -52685.69       287.79163     -52397.898      193.79534      194.51356      509.90554    
     25000  -52675.085      290.6487      -52384.437      193.7722       194.49517      510.13226    
     25100  -52658.27       289.86675     -52368.403      193.74844      194.47662      510.35899    
     25200  -52635.266      288.94044     -52346.326      193.72468      194.458        510.58571    
     25300  -52615.753      290.80351     -52324.949      193.70149      194.43989      510.81244    
     25400  -52599.968      291.3622      -52308.606      193.67746      194.42061      511.03916    
     25500  -52584.46       290.04228     -52294.417      193.65455      194.40205      511.26589    
     25600  -52569.271      287.51823     -52281.753      193.63107      194.38225      511.49261    
     25700  -52556.003      284.28802     -52271.715      193.6083       194.36218      511.71934    
     25800  -52537.596      284.67694     -52252.919      193.58589      194.34174      511.94606    
     25900  -52520.882      291.59135     -52229.291      193.56366      194.32064      512.17279    
     26000  -52499.118      290.55551     -52208.563      193.54205      194.29918      512.39952    
     26100  -52478.164      290.22723     -52187.937      193.52069      194.2775       512.62624    
     26200  -52464.296      294.90979     -52169.386      193.49981      194.25554      512.85297    
     26300  -52446.216      289.41684     -52156.799      193.47856      194.23309      513.07969    
     26400  -52430.165      285.814       -52144.351      193.45773      194.21059      513.30642    
     26500  -52408.818      283.71367     -52125.105      193.43703      194.188        513.53314    
     26600  -52391.696      287.59012     -52104.106      193.41647      194.16578      513.75987    
     26700  -52375.09       290.38637     -52084.703      193.39574      194.14329      513.98659    
     26800  -52356.584      290.34435     -52066.239      193.3745       194.12082      514.21332    
     26900  -52336.625      288.55197     -52048.073      193.35353      194.0989       514.44004    
     27000  -52316.484      290.855       -52025.629      193.33144      194.07619      514.66677    
     27100  -52298.955      294.75645     -52004.199      193.31034      194.05492      514.8935     
     27200  -52284.53       293.31892     -51991.211      193.28694      194.03207      515.12022    
     27300  -52266.331      287.97577     -51978.356      193.26515      194.01148      515.34695    
     27400  -52251.106      289.68261     -51961.423      193.24077      193.98895      515.57367    
     27500  -52232.04       288.98555     -51943.055      193.21835      193.9692       515.8004     
     27600  -52210.487      289.53433     -51920.953      193.19277      193.94719      516.02712    
     27700  -52192.962      294.80806     -51898.154      193.16964      193.92818      516.25385    
     27800  -52174.152      291.66047     -51882.492      193.14307      193.90595      516.48057    
     27900  -52160.929      290.75258     -51870.177      193.11979      193.88682      516.7073     
     28000  -52144.694      292.1192      -51852.575      193.09302      193.8646       516.93402    
     28100  -52121.596      289.10389     -51832.492      193.06951      193.84535      517.16075    
     28200  -52105.067      294.02207     -51811.045      193.04368      193.82339      517.38748    
     28300  -52085.654      295.1153      -51790.539      193.01906      193.80225      517.6142     
     28400  -52067.631      296.38511     -51771.246      192.99464      193.78107      517.84093    
     28500  -52049.524      290.85559     -51758.669      192.9693       193.75814      518.06765    
     28600  -52031.88       287.29515     -51744.585      192.94601      193.73645      518.29438    
     28700  -52014.305      287.57496     -51726.73       192.92121      193.71272      518.5211     
     28800  -51993.552      289.09977     -51704.453      192.8985       193.69005      518.74783    
     28900  -51969.898      289.43379     -51680.464      192.87489      193.66594      518.97455    
     29000  -51955.539      292.53535     -51663.003      192.85231      193.64244      519.20128    
     29100  -51940.924      293.08961     -51647.834      192.82893      193.61763      519.428      
     29200  -51917.794      286.48827     -51631.305      192.80674      193.59336      519.65473    
     29300  -51903.696      291.38529     -51612.31       192.78328      193.5677       519.88146    
     29400  -51885.272      292.52825     -51592.744      192.7613       193.54346      520.10818    
     29500  -51860.72       287.33882     -51573.381      192.73788      193.51766      520.33491    
     29600  -51844.927      291.22022     -51553.707      192.71544      193.49284      520.56163    
     29700  -51823.785      290.27246     -51533.512      192.69212      193.46758      520.78836    
     29800  -51803.98       292.6752      -51511.304      192.66776      193.44241      521.01508    
     29900  -51786.209      292.9017      -51493.308      192.64471      193.41899      521.24181    
     30000  -51769.228      288.28488     -51480.944      192.6187       193.39371      521.46853    
     30100  -51751.173      286.37655     -51464.797      192.59547      193.37161      521.69526    
     30200  -51735.058      290.13651     -51444.921      192.56828      193.34652      521.92198    
     30300  -51711.13       289.67156     -51421.458      192.54467      193.32578      522.14871    
     30400  -51689.283      292.93573     -51396.347      192.5164       193.30115      522.37544    
     30500  -51671.89       293.36807     -51378.522      192.49207      193.28109      522.60216    
     30600  -51656.231      292.94682     -51363.284      192.46364      193.25688      522.82889    
     30700  -51635.774      287.78456     -51347.99       192.43831      193.23593      523.05561    
     30800  -51614.88       285.56717     -51329.313      192.41062      193.21282      523.28234    
     30900  -51594.326      290.3515      -51303.974      192.38439      193.19084      523.50906    
     31000  -51572.609      291.87119     -51280.738      192.35772      193.16797      523.73579    
     31100  -51559.052      294.35428     -51264.698      192.33049      193.14441      523.96251    
     31200  -51538.661      289.23119     -51249.43       192.30498      193.12169      524.18924    
     31300  -51522.062      289.83634     -51232.226      192.27739      193.09681      524.41596    
     31400  -51500.266      287.64429     -51212.622      192.25284      193.07408      524.64269    
     31500  -51483.445      296.23435     -51187.211      192.22563      193.0484       524.86942    
     31600  -51455.561      292.22678     -51163.334      192.20143      193.02471      525.09614    
     31700  -51438.902      291.40639     -51147.496      192.17495      192.99807      525.32287    
     31800  -51424.464      291.65063     -51132.813      192.15092      192.97357      525.54959    
     31900  -51402.427      287.84901     -51114.578      192.1252       192.94634      525.77632    
     32000  -51381.881      287.41102     -51094.47       192.10176      192.92072      526.00304    
     32100  -51362.967      292.89951     -51070.067      192.07586      192.89276      526.22977    
     32200  -51338.93       293.8415      -51045.089      192.05262      192.8672       526.45649    
     32300  -51322.719      293.90886     -51028.81       192.02737      192.83934      526.68322    
     32400  -51306.144      292.80957     -51013.334      192.00334      192.81302      526.90994    
     32500  -51290.276      293.78653     -50996.49       191.97839      192.78593      527.13667    
     32600  -51266.579      287.74028     -50978.839      191.95323      192.75959      527.3634     
     32700  -51250.445      293.13905     -50957.306      191.92784      192.73346      527.59012    
     32800  -51222.61       291.869       -50930.741      191.90274      192.70821      527.81685    
     32900  -51204.102      293.06683     -50911.035      191.87622      192.68216      528.04357    
     33000  -51185.547      289.43416     -50896.112      191.85005      192.65716      528.2703     
     33100  -51165.455      286.2593      -50879.196      191.82288      192.63182      528.49702    
     33200  -51145.996      287.72431     -50858.271      191.79578      192.60687      528.72375    
     33300  -51125.833      288.82303     -50837.01       191.7687       192.58261      528.95047    
     33400  -51105.18       289.36335     -50815.817      191.74015      192.55724      529.1772     
     33500  -51085.875      290.68947     -50795.186      191.7129       192.53362      529.40392    
     33600  -51064.833      290.80936     -50774.023      191.68396      192.50879      529.63065    
     33700  -51046.582      293.23004     -50753.352      191.65672      192.4853       529.85738    
     33800  -51026.556      290.01649     -50736.54       191.6281       192.46075      530.0841     
     33900  -51008.815      288.17322     -50720.642      191.60067      192.43738      530.31083    
     34000  -50987.94       287.24467     -50700.696      191.57225      192.41284      530.53755    
     34100  -50962.689      288.64313     -50674.045      191.54514      192.38949      530.76428    
     34200  -50943.186      291.30578     -50651.881      191.51759      192.36468      530.991      
     34300  -50924.535      290.89845     -50633.637      191.49028      192.33982      531.21773    
     34400  -50905.41       289.20095     -50616.209      191.46449      192.31545      531.44445    
     34500  -50885.503      287.82009     -50597.683      191.4366       192.28838      531.67118    
     34600  -50863.582      287.88739     -50575.694      191.41253      192.26447      531.8979     
     34700  -50841.903      291.40828     -50550.494      191.38498      192.23616      532.12463    
     34800  -50823.431      294.49365     -50528.938      191.36125      192.21132      532.35136    
     34900  -50801.049      288.84251     -50512.206      191.33461      192.1832       532.57808    
     35000  -50782.288      284.5306      -50497.757      191.31064      192.15722      532.80481    
     35100  -50767.76       290.6892      -50477.071      191.2845       192.12912      533.03153    
     35200  -50741.561      287.64384     -50453.917      191.26078      192.10304      533.25826    
     35300  -50719.303      287.92929     -50431.374      191.23519      192.07541      533.48498    
     35400  -50702.549      292.49126     -50410.058      191.21027      192.04883      533.71171    
     35500  -50682.339      292.79057     -50389.549      191.1852       192.02225      533.93843    
     35600  -50660.579      291.4627      -50369.116      191.15861      191.99459      534.16516    
     35700  -50638.646      290.71753     -50347.928      191.13424      191.96939      534.39188    
     35800  -50617.594      290.4598      -50327.134      191.1064       191.94181      534.61861    
     35900  -50598.1        290.42951     -50307.671      191.08175      191.91776      534.84534    
     36000  -50575.101      285.63998     -50289.461      191.05336      191.89049      535.07206    
     36100  -50562.811      291.1461      -50271.665      191.02795      191.86697      535.29879    
     36200  -50539.425      289.32245     -50250.103      190.99941      191.84114      535.52551    
     36300  -50514.004      290.86811     -50223.136      190.97289      191.81821      535.75224    
     36400  -50492.193      291.12453     -50201.068      190.94495      191.79385      535.97896    
     36500  -50472.919      290.31338     -50182.605      190.91721      191.76964      536.20569    
     36600  -50455.033      288.35463     -50166.678      190.89054      191.74654      536.43241    
     36700  -50435.324      283.10672     -50152.217      190.86158      191.72146      536.65914    
     36800  -50417.123      287.78038     -50129.343      190.83601      191.6994       536.88586    
     36900  -50391.418      290.68612     -50100.732      190.80655      191.67276      537.11259    
     37000  -50368.428      290.15392     -50078.275      190.78186      191.65077      537.33932    
     37100  -50348.48       291.91779     -50056.562      190.75282      191.62374      537.56604    
     37200  -50328.82       291.07249     -50037.748      190.7285       191.60071      537.79277    
     37300  -50309.872      288.98844     -50020.883      190.70089      191.574        538.01949    
     37400  -50292.191      290.27167     -50001.919      190.67646      191.54947      538.24622    
     37500  -50270.452      294.73172     -49975.721      190.65131      191.52411      538.47294    
     37600  -50241.193      290.42035     -49950.772      190.62611      191.49794      538.69967    
     37700  -50223.878      292.55413     -49931.324      190.60266      191.47339      538.92639    
     37800  -50201.002      286.70768     -49914.294      190.57689      191.44599      539.15312    
     37900  -50185.078      286.82246     -49898.255      190.55502      191.42251      539.37984    
     38000  -50162.909      283.59786     -49879.311      190.52895      191.39454      539.60657    
     38100  -50140.057      288.53123     -49851.526      190.50755      191.37118      539.8333     
     38200  -50114.122      288.45539     -49825.667      190.48166      191.34341      540.06002    
     38300  -50096.2        293.45408     -49802.746      190.4592       191.31948      540.28675    
     38400  -50075.256      292.68547     -49782.57       190.43432      191.29316      540.51347    
     38500  -50053.712      287.19037     -49766.521      190.41031      191.26812      540.7402     
     38600  -50030.888      281.83527     -49749.053      190.38676      191.24385      540.96692    
     38700  -50011.912      287.13482     -49724.777      190.36119      191.21853      541.19365    
     38800  -49989.116      292.57735     -49696.538      190.33782      191.19565      541.42037    
     38900  -49965.942      290.22369     -49675.719      190.31112      191.17023      541.6471     
     39000  -49947.326      289.41609     -49657.909      190.2877       191.1486       541.87382    
     39100  -49927.454      287.3832      -49640.071      190.2605       191.12384      542.10055    
     39200  -49908.732      288.65161     -49620.08       190.23587      191.10225      542.32728    
     39300  -49887.642      294.07941     -49593.563      190.20927      191.07884      542.554      
     39400  -49857.338      289.33437     -49568.003      190.18344      191.05697      542.78073    
     39500  -49842.238      294.80627     -49547.432      190.15753      191.03456      543.00745    
     39600  -49820.132      288.15161     -49531.981      190.13121      191.01237      543.23418    
     39700  -49802.278      288.86761     -49513.41       190.1056       190.99051      543.4609     
     39800  -49778.088      287.44295     -49490.645      190.07914      190.96773      543.68763    
     39900  -49758.007      290.92195     -49467.085      190.05472      190.9471       543.91435    
     40000  -49732.691      289.05361     -49443.637      190.02825      190.92357      544.14108    
     40100  -49713.265      292.59389     -49420.672      190.00491      190.90272      544.3678     
     40200  -49689.067      294.3764      -49394.69       189.97954      190.87927      544.59453    
     40300  -49664          293.81592     -49370.184      189.95627      190.85674      544.82126    
     40400  -49648.142      293.79688     -49354.345      189.93238      190.83308      545.04798    
     40500  -49624.692      287.17372     -49337.518      189.90946      190.80944      545.27471    
     40600  -49608.264      291.50907     -49316.754      189.88684      190.78524      545.50143    
     40700  -49583.998      289.67544     -49294.322      189.86447      190.76057      545.72816    
     40800  -49559.693      291.43732     -49268.256      189.84322      190.7365       545.95488    
     40900  -49537.45       294.61925     -49242.831      189.82076      190.71075      546.18161    
     41000  -49519.292      293.16869     -49226.124      189.80044      190.68716      546.40833    
     41100  -49500.28       290.99294     -49209.287      189.77828      190.66168      546.63506    
     41200  -49474.836      286.65728     -49188.178      189.75779      190.63804      546.86178    
     41300  -49455.14       290.66803     -49164.472      189.73621      190.61377      547.08851    
     41400  -49429.619      289.91597     -49139.703      189.71548      190.5908       547.31524    
     41500  -49407.991      293.5565      -49114.435      189.69341      190.56701      547.54196    
     41600  -49386.362      293.18161     -49093.18       189.67245      190.54521      547.76869    
     41700  -49368          289.57831     -49078.422      189.64963      190.52207      547.99541    
     41800  -49349.277      290.30183     -49058.976      189.62766      190.50037      548.22214    
     41900  -49322.566      287.19109     -49035.375      189.60534      190.47903      548.44886    
     42000  -49300.778      292.24048     -49008.538      189.582        190.45747      548.67559    
     42100  -49279.525      296.16171     -48983.363      189.55931      190.43741      548.90231    
     42200  -49255.862      287.9821      -48967.88       189.53512      190.41648      549.12904    
     42300  -49237.675      285.55953     -48952.115      189.51234      190.39751      549.35576    
     42400  -49215.208      286.80433     -48928.403      189.48771      190.377        549.58249    
     42500  -49191.246      289.60947     -48901.637      189.46471      190.35858      549.80922    
     42600  -49168.62       291.05441     -48877.565      189.44006      190.33883      550.03594    
     42700  -49148.472      290.90016     -48857.572      189.41638      190.31953      550.26267    
     42800  -49128.481      285.69217     -48842.788      189.39275      190.30024      550.48939    
     42900  -49103.909      282.67376     -48821.236      189.36892      190.28031      550.71612    
     43000  -49089.37       293.27916     -48796.091      189.34637      190.26097      550.94284    
     43100  -49061.479      289.42201     -48772.057      189.32301      190.2406       551.16957    
     43200  -49042.032      292.07315     -48749.959      189.30105      190.22031      551.39629    
     43300  -49021.872      292.89311     -48728.979      189.2791       190.19958      551.62302    
     43400  -49000.148      286.3748      -48713.773      189.25817      190.17883      551.84974    
     43500  -48978.824      284.42744     -48694.396      189.2371       190.15729      552.07647    
     43600  -48954.272      287.25602     -48667.016      189.21698      190.13644      552.30319    
     43700  -48932.854      291.72917     -48641.125      189.19691      190.11442      552.52992    
     43800  -48910.644      292.67904     -48617.965      189.17771      190.09262      552.75665    
     43900  -48886.849      291.30258     -48595.547      189.15835      190.06992      552.98337    
     44000  -48865.797      291.35926     -48574.438      189.13962      190.04772      553.2101     
     44100  -48842.706      287.59753     -48555.109      189.12096      190.02519      553.43682    
     44200  -48827.727      292.02294     -48535.705      189.10201      190.00207      553.66355    
     44300  -48800.434      288.92605     -48511.508      189.08352      189.97954      553.89027    
     44400  -48774.894      291.65776     -48483.237      189.06444      189.95678      554.117      
     44500  -48752.772      291.68108     -48461.091      189.04628      189.93513      554.34372    
     44600  -48732.516      290.03511     -48442.48       189.02661      189.913        554.57045    
     44700  -48715.108      292.06371     -48423.044      189.00797      189.89254      554.79717    
     44800  -48687.596      286.54428     -48401.052      188.9876       189.87136      555.0239     
     44900  -48668.108      289.77029     -48378.338      188.96796      189.8516       555.25063    
     45000  -48647.814      292.40427     -48355.41       188.9481       189.83228      555.47735    
     45100  -48616.716      287.74619     -48328.969      188.92704      189.81279      555.70408    
     45200  -48598.176      294.63776     -48303.538      188.90709      189.79517      555.9308     
     45300  -48574.613      288.45017     -48286.163      188.88497      189.77619      556.15753    
     45400  -48557.113      288.71813     -48268.395      188.86432      189.75894      556.38425    
     45500  -48537.325      291.26159     -48246.063      188.84233      189.74099      556.61098    
     45600  -48513.076      291.47959     -48221.597      188.82092      189.72395      556.8377     
     45700  -48483.862      289.47785     -48194.384      188.79944      189.70679      557.06443    
     45800  -48462.541      294.36716     -48168.174      188.7778       189.68941      557.29115    
     45900  -48439.918      288.9934      -48150.925      188.75662      189.6727       557.51788    
     46000  -48425.143      290.67894     -48134.464      188.73452      189.65496      557.74461    
     46100  -48399.102      285.57237     -48113.53       188.71421      189.63863      557.97133    
     46200  -48377.078      287.2144      -48089.864      188.6927       189.62049      558.19806    
     46300  -48353.761      291.18896     -48062.572      188.67206      189.60286      558.42478    
     46400  -48329.155      291.84664     -48037.309      188.65208      189.58486      558.65151    
     46500  -48309.7        289.40972     -48020.29       188.63164      189.56565      558.87823    
     46600  -48290.45       287.52799     -48002.922      188.61273      189.5473       559.10496    
     46700  -48266.924      287.79509     -47979.129      188.59316      189.52747      559.33168    
     46800  -48244.298      291.09881     -47953.199      188.57498      189.50823      559.55841    
     46900  -48219.112      290.48635     -47928.626      188.55624      189.48756      559.78513    
     47000  -48204.035      292.60057     -47911.435      188.53896      189.46809      560.01186    
     47100  -48179.385      285.79929     -47893.585      188.52126      189.44742      560.23859    
     47200  -48158.511      288.83504     -47869.676      188.50432      189.42717      560.46531    
     47300  -48133.944      291.10804     -47842.836      188.48744      189.40689      560.69204    
     47400  -48110.063      293.4794      -47816.584      188.47033      189.38605      560.91876    
     47500  -48087.432      292.81977     -47794.612      188.45381      189.36594      561.14549    
     47600  -48067.328      285.99069     -47781.338      188.43666      189.3455       561.37221    
     47700  -48044.054      285.61247     -47758.442      188.41911      189.32492      561.59894    
     47800  -48021.167      290.41631     -47730.751      188.40238      189.30533      561.82566    
     47900  -47996.99       291.89257     -47705.098      188.38445      189.28497      562.05239    
     48000  -47974.127      290.14053     -47683.986      188.36715      189.26593      562.27911    
     48100  -47959.121      291.54583     -47667.575      188.34847      189.24606      562.50584    
     48200  -47935.395      288.91621     -47646.479      188.33035      189.22766      562.73257    
     48300  -47914.014      292.06469     -47621.95       188.31096      189.20925      562.95929    
     48400  -47886.933      289.1801      -47597.753      188.29235      189.19202      563.18602    
     48500  -47866.651      292.65016     -47574.001      188.27257      189.17435      563.41274    
     48600  -47839.747      288.6254      -47551.122      188.25329      189.15815      563.63947    
     48700  -47823.375      292.6041      -47530.771      188.23342      189.14169      563.86619    
     48800  -47796.677      286.4155      -47510.261      188.21266      189.12524      564.09292    
     48900  -47775.084      288.4575      -47486.626      188.19352      189.11022      564.31964    
     49000  -47752.288      293.85393     -47458.434      188.17183      189.09319      564.54637    
     49100  -47730.102      297.51534     -47432.586      188.15287      189.07888      564.77309    
     49200  -47710.357      294.34718     -47416.01       188.13171      189.06219      564.99982    
     49300  -47688.276      291.00728     -47397.268      188.11216      189.04702      565.22655    
     49400  -47662.585      288.9811      -47373.604      188.09188      189.03058      565.45327    
     49500  -47638.891      291.37916     -47347.512      188.07237      189.01424      565.68       
     49600  -47613.223      291.70847     -47321.514      188.05344      188.99809      565.90672    
     49700  -47590.535      290.20352     -47300.331      188.03375      188.98048      566.13345    
     49800  -47572.788      288.32202     -47284.466      188.01586      188.96381      566.36017    
     49900  -47548.936      286.67943     -47262.256      187.9973       188.9455       566.5869     
     50000  -47525.294      289.08808     -47236.206      187.97964      188.9269       566.81362    
     50100  -47499.879      291.96843     -47207.91       187.96264      188.90852      567.04035    
     50200  -47477.473      294.08394     -47183.389      187.94535      188.88886      567.26707    
     50300  -47460.616      291.0482      -47169.567      187.92887      188.86961      567.4938     
     50400  -47438.169      289.42387     -47148.745      187.91244      188.84958      567.72053    
     50500  -47414.097      289.20006     -47124.897      187.89656      188.83014      567.94725    
     50600  -47390.136      291.14989     -47098.986      187.88021      188.80984      568.17398    
     50700  -47367.434      294.38144     -47073.053      187.86466      188.79037      568.4007     
     50800  -47344.974      290.76405     -47054.21       187.84859      188.77062      568.62743    
     50900  -47322.231      286.56954     -47035.661      187.83269      188.75133      568.85415    
     51000  -47300.888      289.07769     -47011.81       187.81646      188.73217      569.08088    
     51100  -47275.4        289.76859     -46985.632      187.79917      188.71233      569.3076     
     51200  -47246.425      288.25842     -46958.167      187.78343      188.69458      569.53433    
     51300  -47225.607      296.56014     -46929.047      187.76504      188.67471      569.76105    
     51400  -47204.81       297.16727     -46907.643      187.74819      188.6569       569.98778    
     51500  -47184.153      292.86131     -46891.291      187.73005      188.6387       570.21451    
     51600  -47164.267      292.37594     -46871.891      187.71162      188.62079      570.44123    
     51700  -47139.995      288.42645     -46851.569      187.69331      188.60378      570.66796    
     51800  -47116.651      285.70255     -46830.948      187.67417      188.58654      570.89468    
     51900  -47097.369      289.01924     -46808.35       187.65543      188.57044      571.12141    
     52000  -47071.066      289.57817     -46781.488      187.63601      188.55419      571.34813    
     52100  -47045.557      292.70497     -46752.852      187.61629      188.53807      571.57486    
     52200  -47022.151      291.59118     -46730.56       187.59735      188.52297      571.80158    
     52300  -47002.904      289.85808     -46713.046      187.5768       188.50624      572.02831    
     52400  -46979.108      288.05952     -46691.048      187.5588       188.49221      572.25503    
     52500  -46957.487      290.04634     -46667.441      187.53763      188.47473      572.48176    
     52600  -46937.852      294.20681     -46643.645      187.51962      188.4601       572.70849    
     52700  -46912.264      289.2026      -46623.061      187.49948      188.44318      572.93521    
     52800  -46892.361      288.78588     -46603.575      187.4814       188.4276       573.16194    
     52900  -46861.814      283.6204      -46578.194      187.46251      188.41077      573.38866    
     53000  -46841.542      293.51048     -46548.032      187.44363      188.39334      573.61539    
     53100  -46820.164      296.72732     -46523.437      187.42696      188.37761      573.84211    
     53200  -46795.608      293.02581     -46502.582      187.40697      188.35784      574.06884    
     53300  -46774.55       292.86846     -46481.681      187.39198      188.3423       574.29556    
     53400  -46747.637      287.07035     -46460.566      187.3729       188.32219      574.52229    
     53500  -46725.912      287.54479     -46438.367      187.35736      188.30509      574.74901    
     53600  -46704.415      287.59018     -46416.824      187.33897      188.28476      574.97574    
     53700  -46684.324      286.37003     -46397.954      187.32349      188.26699      575.20247    
     53800  -46657.985      284.80904     -46373.176      187.30681      188.24739      575.42919    
     53900  -46635.18       292.20995     -46342.97       187.28919      188.22681      575.65592    
     54000  -46611.31       293.88411     -46317.426      187.27467      188.20925      575.88264    
     54100  -46587.646      291.10479     -46296.541      187.25618      188.18799      576.10937    
     54200  -46567.662      292.88721     -46274.775      187.24157      188.17084      576.33609    
     54300  -46542.601      290.36217     -46252.239      187.22321      188.1503       576.56282    
     54400  -46518.205      288.37229     -46229.833      187.2078       188.13311      576.78954    
     54500  -46496.345      288.4928      -46207.852      187.18924      188.11361      577.01627    
     54600  -46475.741      284.64672     -46191.095      187.17263      188.09615      577.24299    
     54700  -46453.461      285.66224     -46167.798      187.15469      188.07777      577.46972    
     54800  -46429.895      291.14899     -46138.746      187.13642      188.05935      577.69645    
     54900  -46402.031      290.71274     -46111.319      187.11936      188.04251      577.92317    
     55000  -46375.509      288.40104     -46087.108      187.09894      188.02281      578.1499     
     55100  -46356.695      290.37779     -46066.317      187.08291      188.00798      578.37662    
     55200  -46336.927      289.0702      -46047.857      187.06123      187.98811      578.60335    
     55300  -46311.808      288.93555     -46022.872      187.04425      187.97314      578.83007    
     55400  -46287.513      290.57453     -45996.938      187.02323      187.9546       579.0568     
     55500  -46262.858      291.04085     -45971.817      187.00577      187.93934      579.28352    
     55600  -46243.882      291.89434     -45951.988      186.98544      187.92174      579.51025    
     55700  -46223.203      291.6769      -45931.526      186.96653      187.9058       579.73697    
     55800  -46195.216      288.09249     -45907.123      186.94751      187.8896       579.9637     
     55900  -46173.645      294.60003     -45879.045      186.92727      187.87185      580.19043    
     56000  -46141.977      293.44222     -45848.535      186.90975      187.85685      580.41715    
     56100  -46119.124      293.2491      -45825.875      186.88849      187.8375       580.64388    
     56200  -46098.845      289.83533     -45809.01       186.87208      187.82308      580.8706     
     56300  -46076.883      289.71524     -45787.168      186.85122      187.80368      581.09733    
     56400  -46054.536      289.01773     -45765.518      186.83412      187.78781      581.32405    
     56500  -46033.767      291.11936     -45742.648      186.81518      187.76938      581.55078    
     56600  -46008.809      289.15937     -45719.65       186.79727      187.7515       581.7775     
     56700  -45983.213      286.90008     -45696.313      186.77986      187.73354      582.00423    
     56800  -45963.653      290.333       -45673.32       186.7615       187.71392      582.23095    
     56900  -45937.275      290.59707     -45646.678      186.74605      187.69674      582.45768    
     57000  -45909.542      291.75861     -45617.784      186.72647      187.67528      582.68441    
     57100  -45883.36       291.798       -45591.562      186.7113       187.65753      582.91113    
     57200  -45864.406      289.99638     -45574.41       186.69278      187.63652      583.13786    
     57300  -45837.352      285.40086     -45551.952      186.67649      187.6175       583.36458    
     57400  -45818.682      290.49849     -45528.183      186.65935      187.59749      583.59131    
     57500  -45794.962      288.75794     -45506.205      186.64211      187.57723      583.81803    
     57600  -45770.932      286.75454     -45484.177      186.62583      187.55841      584.04476    
     57700  -45750.572      287.02697     -45463.545      186.60797      187.5381       584.27148    
     57800  -45727.525      284.70751     -45442.817      186.59154      187.51998      584.49821    
     57900  -45705.065      286.93591     -45418.129      186.57259      187.49971      584.72493    
     58000  -45676.003      291.11635     -45384.886      186.55523      187.48132      584.95166    
     58100  -45651.349      294.10932     -45357.24       186.53723      187.46292      585.17839    
     58200  -45629.259      294.03587     -45335.223      186.51814      187.44402      585.40511    
     58300  -45605.219      290.99182     -45314.227      186.50026      187.42662      585.63184    
     58400  -45579.399      289.05787     -45290.341      186.48021      187.40755      585.85856    
     58500  -45554.265      288.87315     -45265.392      186.46146      187.39053      586.08529    
     58600  -45533.291      290.92429     -45242.367      186.4409       187.37184      586.31201    
     58700  -45510.487      287.7009      -45222.786      186.42227      187.35564      586.53874    
     58800  -45487.267      286.91316     -45200.353      186.40133      187.33746      586.76546    
     58900  -45464.071      291.35332     -45172.718      186.38198      187.32094      586.99219    
     59000  -45435.896      290.67422     -45145.222      186.36116      187.30349      587.21891    
     59100  -45413.994      293.46841     -45120.525      186.34159      187.2869       587.44564    
     59200  -45391.387      290.41035     -45100.977      186.32127      187.2696       587.67237    
     59300  -45368.357      291.87174     -45076.486      186.30184      187.25316      587.89909    
     59400  -45340.299      289.9685      -45050.33       186.2816       187.23532      588.12582    
     59500  -45317.992      293.04075     -45024.951      186.26231      187.21801      588.35254    
     59600  -45293.574      287.41842     -45006.156      186.24299      187.20057      588.57927    
     59700  -45267.36       285.22702     -44982.133      186.22407      187.18311      588.80599    
     59800  -45243.393      290.00763     -44953.385      186.20473      187.16445      589.03272    
     59900  -45215.33       291.103       -44924.227      186.18612      187.14616      589.25944    
     60000  -45189.511      291.52412     -44897.987      186.16779      187.12747      589.48617    
     60100  -45170.845      292.43777     -44878.408      186.14927      187.10824      589.71289    
     60200  -45144.921      289.25698     -44855.664      186.13185      187.08957      589.93962    
     60300  -45121.277      289.61697     -44831.66       186.11424      187.07006      590.16635    
     60400  -45097.858      290.1256      -44807.732      186.09657      187.05006      590.39307    
     60500  -45075.207      290.40143     -44784.806      186.0796       187.03026      590.6198     
     60600  -45051.227      288.12084     -44763.106      186.06167      187.00895      590.84652    
     60700  -45026.649      288.95355     -44737.696      186.046        186.98977      591.07325    
     60800  -44996.793      291.75072     -44705.042      186.02727      186.96781      591.29997    
     60900  -44968.853      294.86782     -44673.985      186.01126      186.94844      591.5267     
     61000  -44944.692      292.42292     -44652.269      185.99357      186.92749      591.75342    
     61100  -44923.873      293.61843     -44630.255      185.97625      186.90744      591.98015    
     61200  -44899.192      292.24288     -44606.949      185.95882      186.88776      592.20687    
     61300  -44874.175      290.53252     -44583.643      185.94074      186.86803      592.4336     
     61400  -44849.732      291.09479     -44558.637      185.92307      186.84932      592.66032    
     61500  -44827.348      293.60967     -44533.738      185.90383      186.82976      592.88705    
     61600  -44798.555      290.32366     -44508.231      185.88637      186.81214      593.11378    
     61700  -44771.022      282.04313     -44488.979      185.86579      186.79227      593.3405     
     61800  -44748.903      288.94415     -44459.959      185.84732      186.77526      593.56723    
     61900  -44715.926      286.92918     -44428.997      185.82637      186.756        593.79395    
     62000  -44692.458      291.44477     -44401.013      185.80751      186.73932      594.02068    
     62100  -44675.568      294.93936     -44380.629      185.78654      186.72093      594.2474     
     62200  -44646.756      291.62899     -44355.127      185.76712      186.70439      594.47413    
     62300  -44619.76       289.98338     -44329.776      185.7461       186.68682      594.70085    
     62400  -44596.325      291.34975     -44304.975      185.72573      186.66997      594.92758    
     62500  -44570.49       290.41465     -44280.076      185.70525      186.65329      595.1543     
     62600  -44543.654      288.24187     -44255.413      185.68513      186.63675      595.38103    
     62700  -44522.894      287.18588     -44235.708      185.66455      186.61966      595.60776    
     62800  -44495.06       289.40805     -44205.652      185.64494      186.60302      595.83448    
     62900  -44463.752      289.99696     -44173.755      185.62438      186.5851       596.06121    
     63000  -44435.819      292.416       -44143.403      185.60512      186.56822      596.28793    
     63100  -44412.534      291.55137     -44120.983      185.58527      186.55009      596.51466    
     63200  -44386.604      290.83832     -44095.766      185.5669       186.53297      596.74138    
     63300  -44359.169      290.20536     -44068.963      185.54791      186.51442      596.96811    
     63400  -44334.106      290.85126     -44043.255      185.52961      186.49606      597.19483    
     63500  -44305.539      287.49759     -44018.041      185.51167      186.47714      597.42156    
     63600  -44278.879      285.87712     -43993.002      185.4941       186.458        597.64828    
     63700  -44254.533      286.74743     -43967.785      185.47638      186.43805      597.87501    
     63800  -44231.727      285.80278     -43945.924      185.45986      186.41875      598.10174    
     63900  -44205.29       290.96656     -43914.324      185.44245      186.39807      598.32846    
     64000  -44167.686      287.63683     -43880.05       185.42645      186.37854      598.55519    
     64100  -44141.23       291.2105      -43850.02       185.40924      186.35772      598.78191    
     64200  -44114.928      290.76301     -43824.165      185.39323      186.33811      599.00864    
     64300  -44087.228      290.94802     -43796.28       185.37596      186.31763      599.23536    
     64400  -44061.808      292.04799     -43769.76       185.35986      186.29873      599.46209    
     64500  -44032.583      288.53973     -43744.043      185.34206      186.27838      599.68881    
     64600  -44005.387      288.26519     -43717.122      185.32611      186.26031      599.91554    
     64700  -43979.934      290.31757     -43689.616      185.30803      186.24057      600.14226    
     64800  -43953.498      291.52857     -43661.969      185.2912       186.22255      600.36899    
     64900  -43920.953      287.86654     -43633.087      185.27264      186.20352      600.59572    
     65000  -43892.914      290.14169     -43602.772      185.25526      186.18599      600.82244    
     65100  -43865.77       290.88521     -43574.885      185.23618      186.16732      601.04917    
     65200  -43837.583      290.48773     -43547.095      185.21851      186.1507       601.27589    
     65300  -43810.074      290.89123     -43519.183      185.19943      186.13304      601.50262    
     65400  -43783.769      292.41661     -43491.353      185.18122      186.11669      601.72934    
     65500  -43753.573      289.93254     -43463.641      185.16163      186.09944      601.95607    
     65600  -43726.723      291.80634     -43434.916      185.14296      186.08334      602.18279    
     65700  -43698.664      292.78502     -43405.879      185.12404      186.06685      602.40952    
     65800  -43665.13       289.29        -43375.84       185.10485      186.05024      602.63624    
     65900  -43641.872      295.46722     -43346.405      185.0868       186.03459      602.86297    
     66000  -43607.376      289.67247     -43317.703      185.06737      186.01756      603.0897     
     66100  -43582.118      293.67285     -43288.445      185.04975      186.00246      603.31642    
     66200  -43551.843      292.2104      -43259.633      185.0301       185.98517      603.54315    
     66300  -43523.223      293.50846     -43229.715      185.01277      185.9703       603.76987    
     66400  -43490.775      291.01148     -43199.763      184.99379      185.95319      603.9966     
     66500  -43463.052      293.66347     -43169.388      184.97706      185.93817      604.22332    
     66600  -43431.485      291.67228     -43139.813      184.95797      185.92043      604.45005    
     66700  -43402.991      292.24268     -43110.748      184.94206      185.90537      604.67677    
     66800  -43372.638      291.32188     -43081.316      184.92357      185.88722      604.9035     
     66900  -43342.05       291.16917     -43050.881      184.90817      185.87162      605.13022    
     67000  -43309.814      289.75        -43020.064      184.8903       185.85292      605.35695    
     67100  -43282.737      292.50058     -42990.237      184.87562      185.8372       605.58368    
     67200  -43251.341      291.57267     -42959.768      184.85824      185.81838      605.8104     
     67300  -43219.841      291.50076     -42928.34       184.8434       185.80171      606.03713    
     67400  -43190.665      292.87821     -42897.786      184.82718      185.78389      606.26385    
     67500  -43156.121      289.51089     -42866.61       184.81215      185.76688      606.49058    
     67600  -43127.685      292.41271     -42835.273      184.7966       185.74947      606.7173     
     67700  -43097.885      294.35164     -42803.533      184.78141      185.73189      606.94403    
     67800  -43066.251      294.89001     -42771.361      184.76636      185.71475      607.17075    
     67900  -43032.563      292.86818     -42739.695      184.75104      185.6971       607.39748    
     68000  -43002.999      294.46495     -42708.534      184.7363       185.68013      607.6242     
     68100  -42969.298      292.32784     -42676.97       184.72126      185.66303      607.85093    
     68200  -42940.042      294.70121     -42645.341      184.7062       185.64593      608.07766    
     68300  -42907.172      293.83296     -42613.339      184.69121      185.62924      608.30438    
     68400  -42871.066      290.16763     -42580.898      184.67597      185.61263      608.53111    
     68500  -42841.648      293.16967     -42548.478      184.66108      185.59684      608.75783    
     68600  -42810.139      293.97908     -42516.16       184.64504      185.58024      608.98456    
     68700  -42778.479      294.8534      -42483.626      184.63011      185.5653       609.21128    
     68800  -42739.866      289.85113     -42450.015      184.61378      185.54922      609.43801    
     68900  -42711.537      295.6427      -42415.894      184.59871      185.53465      609.66473    
     69000  -42679.667      297.2925      -42382.375      184.58218      185.519        609.89146    
     69100  -42641.908      292.36046     -42349.548      184.56695      185.50505      610.11818    
     69200  -42611.307      294.7702      -42316.536      184.55084      185.49049      610.34491    
     69300  -42578.889      294.73074     -42284.158      184.53521      185.47673      610.57164    
     69400  -42541.588      290.98128     -42250.607      184.5187       185.4623       610.79836    
     69500  -42507.223      291.35937     -42215.863      184.50312      185.44925      611.02509    
     69600  -42474.765      292.95706     -42181.808      184.48645      185.43511      611.25181    
     69700  -42437.877      289.48734     -42148.39       184.47099      185.42219      611.47854    
     69800  -42406.561      293.55763     -42113.003      184.45481      185.40835      611.70526    
     69900  -42373.129      294.31677     -42078.812      184.43923      185.39495      611.93199    
     70000  -42340.861      294.87359     -42045.988      184.42404      185.38161      612.15871    
     70100  -42303.698      292.49299     -42011.205      184.40802      185.3673       612.38544    
     70200  -42271.708      295.30623     -41976.402      184.39366      185.35442      612.61216    
     70300  -42237.473      296.67066     -41940.802      184.37791      185.33971      612.83889    
     70400  -42203.144      298.29883     -41904.845      184.36454      185.32704      613.06562    
     70500  -42164.502      295.27101     -41869.231      184.34866      185.31165      613.29234    
     70600  -42129.682      296.51457     -41833.168      184.33612      185.2993       613.51907    
     70700  -42093.519      295.43231     -41798.087      184.32049      185.2834       613.74579    
     70800  -42057.081      293.25084     -41763.83       184.30834      185.27074      613.97252    
     70900  -42024.923      297.72257     -41727.201      184.29316      185.25475      614.19924    
     71000  -41987.645      295.88801     -41691.757      184.28136      185.24179      614.42597    
     71100  -41949.467      293.98329     -41655.484      184.2668       185.22586      614.65269    
     71200  -41914.49       295.53028     -41618.96       184.25481      185.21228      614.87942    
     71300  -41876.287      293.81133     -41582.476      184.24115      185.19676      615.10614    
     71400  -41842.954      295.9854      -41546.969      184.22911      185.18289      615.33287    
     71500  -41810.162      298.59127     -41511.571      184.21605      185.16795      615.5596     
     71600  -41768.335      294.94361     -41473.392      184.20318      185.15329      615.78632    
     71700  -41737.545      302.28608     -41435.259      184.19102      185.13927      616.01305    
     71800  -41692.629      297.40016     -41395.229      184.17761      185.12425      616.23977    
     71900  -41657.657      300.04182     -41357.615      184.16593      185.11117      616.4665     
     72000  -41620.317      302.41861     -41317.898      184.15202      185.09591      616.69322    
     72100  -41585.528      304.95146     -41280.577      184.14065      185.08336      616.91995    
     72200  -41542.94       301.38303     -41241.557      184.12666      185.06857      617.14667    
     72300  -41509.443      305.32365     -41204.12       184.1148       185.05616      617.3734     
     72400  -41467.529      301.85038     -41165.678      184.10062      185.04181      617.60012    
     72500  -41432.007      303.89849     -41128.109      184.08883      185.03007      617.82685    
     72600  -41395.38       306.19504     -41089.185      184.07445      185.01594      618.05358    
     72700  -41355.307      304.5347      -41050.772      184.06219      185.00404      618.2803     
[...]
     81600  -52714.436      398.41485     -52316.021      183.8936       184.84108      638.45887    
     81700  -52895.907      395.11936     -52500.787      183.91186      184.85948      638.68559    
     81800  -53076.064      393.16032     -52682.904      183.92996      184.87772      638.91232    
     81900  -53252.314      389.85364     -52862.461      183.94781      184.89572      639.13904    
     82000  -53427.401      387.74958     -53039.652      183.96549      184.91355      639.36577    
     82100  -53591.232      379.17671     -53212.056      183.98316      184.93137      639.59249    
     82200  -53747.77       371.73886     -53376.031      184.00094      184.94932      639.81922    
     82300  -53894.575      363.3352      -53531.24       184.01863      184.96717      640.04594    
     82400  -54033.561      355.64826     -53677.913      184.03648      184.98519      640.27267    
     82500  -54164.366      348.14404     -53816.222      184.05426      185.00315      640.49939    
     82600  -54287.133      340.90419     -53946.229      184.07225      185.02132      640.72612    
     82700  -54401.594      333.66753     -54067.926      184.09025      185.03951      640.95285    
     82800  -54507.95       326.68634     -54181.263      184.10849      185.05795      641.17957    
     82900  -54606.094      319.9582      -54286.136      184.12682      185.07647      641.4063     
     83000  -54695.752      313.36593     -54382.386      184.14544      185.0953       641.63302    
     83100  -54776.95       307.15643     -54469.793      184.16423      185.11431      641.85975    
     83200  -54849.353      301.31122     -54548.042      184.18338      185.13368      642.08647    
     83300  -54912.571      295.87822     -54616.693      184.2028       185.15332      642.3132     
     83400  -54966.251      291.10166     -54675.15       184.22266      185.17342      642.53992    
     83500  -55010.746      287.97429     -54722.771      184.24255      185.19352      642.76665    
     83600  -55046.897      286.84966     -54760.048      184.2624       185.2135       642.99337    
     83700  -55074.412      286.09713     -54788.315      184.28234      185.23356      643.2201     
     83800  -55093.102      285.15153     -54807.95       184.30241      185.25384      643.44683    
     83900  -55102.918      284.69313     -54818.225      184.32248      185.27423      643.67355    
     84000  -55103.668      285.00506     -54818.663      184.34264      185.29481      643.90028    
     84100  -55094.78       284.9811      -54809.799      184.36222      185.31481      644.127      
     84200  -55074.726      283.08366     -54791.642      184.38112      185.33412      644.35373    
     84300  -55042.395      280.2795      -54762.115      184.39952      185.35302      644.58045    
     84400  -54997.209      277.51732     -54719.691      184.41757      185.37159      644.80718    
     84500  -54939.67       273.71007     -54665.96       184.43524      185.38981      645.0339     
     84600  -54869.382      265.8538      -54603.528      184.45274      185.40786      645.26063    
     84700  -54785.748      252.83995     -54532.908      184.46966      185.42533      645.48735    
     84800  -54689.966      235.07701     -54454.889      184.48648      185.4428       645.71408    
     84900  -54583.994      211.03776     -54372.957      184.50249      185.45956      645.94081    
     85000  -54472.776      180.56685     -54292.209      184.51826      185.4761       646.16753    
     85100  -54363.718      144.95602     -54218.762      184.53295      185.49148      646.39426    
     85200  -54272.009      114.39802     -54157.611      184.54661      185.50546      646.62098    
     85300  -54329.336      247.3184      -54082.018      184.55462      185.51355      646.84771    
     85400  -54309.982      318.20616     -53991.776      184.53808      185.49546      647.07443    
     85500  -54359.624      361.66034     -53997.964      184.57937      185.53385      647.30116    
     85600  -54396.087      290.90601     -54105.181      184.58761      185.53792      647.52788    
     85700  -54395.317      241.10503     -54154.212      184.59469      185.53768      647.75461    
     85800  -54402.518      272.49166     -54130.026      184.62879      185.56671      647.98133    
     85900  -54418.804      334.6907      -54084.113      184.6426       185.57493      648.20806    
     86000  -54468.74       346.47946     -54122.261      184.66249      185.58819      648.43479    
     86100  -54563.147      321.93439     -54241.213      184.69368      185.61143      648.66151    
     86200  -54612.104      279.27297     -54332.831      184.715        185.62563      648.88824    
     86300  -54639.495      264.19966     -54375.295      184.72566      185.63738      649.11496    
     86400  -54644.569      275.54089     -54369.028      184.74492      185.65987      649.34169    
     86500  -54644.824      305.67189     -54339.152      184.75773      185.67167      649.56841    
     86600  -54655.278      313.72911     -54341.548      184.771        185.69067      649.79514    
     86700  -54678.672      291.91811     -54386.754      184.78474      185.70436      650.02186    
     86800  -54697.561      268.87901     -54428.682      184.80514      185.72944      650.24859    
     86900  -54709.208      271.93216     -54437.275      184.81722      185.74194      650.47531    
     87000  -54707.89       294.68036     -54413.21       184.83443      185.75844      650.70204    
     87100  -54705.974      311.51963     -54394.454      184.84913      185.77118      650.92877    
     87200  -54725.09       307.81772     -54417.273      184.87455      185.7841       651.15549    
     87300  -54751.685      284.39241     -54467.292      184.89873      185.79341      651.38222    
     87400  -54779.076      277.5524      -54501.524      184.92749      185.80563      651.60894    
     87500  -54785.08       276.28426     -54508.795      184.95849      185.81228      651.83567    
     87600  -54797.449      300.98179     -54496.468      184.98805      185.82317      652.06239    
     87700  -54811.676      308.91047     -54502.765      185.01469      185.83082      652.28912    
     87800  -54828.392      290.33296     -54538.059      185.03916      185.83872      652.51584    
     87900  -54840.224      273.429       -54566.795      185.05963      185.8478       652.74257    
     88000  -54848.976      280.63771     -54568.338      185.08277      185.86341      652.96929    
     88100  -54850.622      296.41788     -54554.204      185.10153      185.87722      653.19602    
     88200  -54857.108      303.07846     -54554.029      185.12085      185.89521      653.42275    
     88300  -54866.418      288.37069     -54578.048      185.13293      185.91199      653.64947    
     88400  -54879.58       277.73842     -54601.842      185.14519      185.93157      653.8762     
     88500  -54882.837      278.63875     -54604.199      185.15415      185.94987      654.10292    
     88600  -54876.506      290.61542     -54585.891      185.16455      185.97023      654.32965    
     88700  -54866.774      298.07661     -54568.697      185.1701       185.98697      654.55637    
     88800  -54858.267      294.33962     -54563.928      185.1783       186.005        654.7831     
     88900  -54854.049      289.65684     -54564.392      185.18705      186.01985      655.00982    
     89000  -54841.789      281.55361     -54560.236      185.19913      186.0349       655.23655    
     89100  -54822.82       279.04123     -54543.779      185.21224      186.04726      655.46327    
     89200  -54801.866      289.09338     -54512.773      185.22776      186.05929      655.69       
     89300  -54781.866      299.04063     -54482.825      185.24257      186.06298      655.91673    
     89400  -54770.979      300.42498     -54470.554      185.26062      186.06921      656.14345    
     89500  -54776.695      296.51957     -54480.176      185.28191      186.0773       656.37018    
     89600  -54796.519      294.42814     -54502.091      185.30226      186.08625      656.5969     
     89700  -54806.572      282.54681     -54524.025      185.3214       186.09287      656.82363    
     89800  -54810.274      279.75772     -54530.517      185.34007      186.09978      657.05035    
     89900  -54814.337      293.78201     -54520.555      185.362        186.10656      657.27708    
     90000  -54818.812      305.89776     -54512.914      185.38351      186.11254      657.5038     
     90100  -54830.977      300.91603     -54530.061      185.40163      186.11758      657.73053    
     90200  -54843.42       282.29159     -54561.129      185.41977      186.12348      657.95725    
     90300  -54859.447      281.82321     -54577.624      185.44006      186.13105      658.18398    
     90400  -54864.868      286.10908     -54578.759      185.46066      186.13806      658.41071    
     90500  -54869.637      294.19746     -54575.44       185.47614      186.14472      658.63743    
     90600  -54872.288      293.75296     -54578.535      185.49124      186.15305      658.86416    
     90700  -54881.746      292.70485     -54589.042      185.50598      186.16132      659.09088    
     90800  -54887.165      286.81091     -54600.354      185.52059      186.16998      659.31761    
     90900  -54888.369      284.2211      -54604.148      185.53042      186.17772      659.54433    
     91000  -54876.912      281.99743     -54594.914      185.54319      186.18834      659.77106    
     91100  -54855.446      285.01694     -54570.429      185.55196      186.19761      659.99778    
     91200  -54840.697      297.51541     -54543.181      185.56324      186.21078      660.22451    
     91300  -54825.718      295.79159     -54529.926      185.57247      186.22196      660.45123    
     91400  -54817.582      289.68275     -54527.899      185.5885       186.23675      660.67796    
     91500  -54806.296      283.25007     -54523.046      185.60108      186.24636      660.90469    
     91600  -54785.392      282.72993     -54502.662      185.61844      186.2592       661.13141    
     91700  -54764.644      293.72469     -54470.919      185.632        186.26937      661.35814    
     91800  -54742.687      297.34216     -54445.345      185.64829      186.28079      661.58486    
     91900  -54735.879      298.8954      -54436.983      185.66128      186.29048      661.81159    
     92000  -54733.59       291.37031     -54442.22       185.67892      186.304        662.03831    
     92100  -54738.55       286.81194     -54451.738      185.69765      186.31767      662.26504    
     92200  -54739.55       283.47555     -54456.074      185.71881      186.32967      662.49176    
     92300  -54750.074      293.66074     -54456.413      185.74058      186.34199      662.71849    
     92400  -54760.82       297.7542      -54463.066      185.76462      186.35617      662.94521    
     92500  -54773.102      291.49676     -54481.605      185.78767      186.36991      663.17194    
     92600  -54787.763      285.92544     -54501.837      185.8098       186.38148      663.39867    
     92700  -54801.843      288.04171     -54513.802      185.83454      186.39796      663.62539    
     92800  -54813.274      291.70511     -54521.569      185.85785      186.41002      663.85212    
     92900  -54819.808      289.07294     -54530.735      185.886        186.42346      664.07884    
     93000  -54831.088      290.44135     -54540.646      185.90917      186.43434      664.30557    
     93100  -54832.533      284.18154     -54548.352      185.93686      186.4502       664.53229    
     93200  -54836.121      288.58435     -54547.537      185.95836      186.45903      664.75902    
     93300  -54832.303      290.86417     -54541.439      185.98236      186.47194      664.98574    
     93400  -54829.582      292.71796     -54536.864      185.99707      186.47663      665.21247    
     93500  -54827.569      290.40013     -54537.169      186.01291      186.48402      665.43919    
     93600  -54827.1        289.91791     -54537.182      186.02025      186.48353      665.66592    
     93700  -54818.403      284.52605     -54533.877      186.02688      186.48431      665.89265    
     93800  -54803.915      284.4954      -54519.419      186.02869      186.48045      666.11937    
     93900  -54790.885      294.26617     -54496.618      186.03182      186.4801       666.3461     
     94000  -54783.445      301.49274     -54481.953      186.03069      186.47651      666.57282    
     94100  -54786.211      297.25604     -54488.955      186.03146      186.47354      666.79955    
     94200  -54794.518      285.80067     -54508.717      186.02914      186.46777      667.02627    
     94300  -54799.672      279.47722     -54520.195      186.02791      186.46437      667.253      
     94400  -54805.43       287.93305     -54517.497      186.0262       186.461        667.47972    
     94500  -54807.704      297.06675     -54510.637      186.02426      186.45625      667.70645    
     94600  -54817.506      300.40325     -54517.102      186.02269      186.45016      667.93317    
     94700  -54832.209      289.64407     -54542.565      186.0233       186.44388      668.1599     
     94800  -54848.901      282.85967     -54566.041      186.02582      186.43914      668.38663    
     94900  -54858.56       284.64233     -54573.917      186.02995      186.43527      668.61335    
     95000  -54860.287      290.98439     -54569.303      186.03535      186.43132      668.84008    
     95100  -54864.792      297.90505     -54566.887      186.04206      186.42872      669.0668     
     95200  -54873.568      292.65448     -54580.914      186.04794      186.42768      669.29353    
     95300  -54882.497      283.60333     -54598.893      186.056        186.42842      669.52025    
     95400  -54885.86       281.28901     -54604.571      186.0665       186.42973      669.74698    
     95500  -54886.541      289.73658     -54596.805      186.07869      186.43163      669.9737     
     95600  -54882.586      294.03757     -54588.548      186.09341      186.43672      670.20043    
     95700  -54881.823      292.37551     -54589.448      186.10709      186.44059      670.42715    
     95800  -54877.862      285.43101     -54592.431      186.12205      186.44945      670.65388    
     95900  -54868.059      283.3402      -54584.719      186.13432      186.45936      670.88061    
     96000  -54852.197      286.46886     -54565.728      186.146        186.47161      671.10733    
     96100  -54841.423      296.80624     -54544.617      186.15668      186.48647      671.33406    
     96200  -54827.752      292.95435     -54534.798      186.16714      186.50132      671.56078    
     96300  -54819.311      286.02791     -54533.283      186.18041      186.51973      671.78751    
     96400  -54813.285      283.96228     -54529.323      186.19267      186.53807      672.01423    
     96500  -54804.927      286.89891     -54518.028      186.20238      186.55461      672.24096    
     96600  -54791.155      289.27238     -54501.883      186.21554      186.57397      672.46768    
     96700  -54789.576      296.95125     -54492.625      186.23012      186.59341      672.69441    
     96800  -54791.173      294.9812      -54496.191      186.24508      186.61311      672.92113    
     96900  -54796.398      288.30626     -54508.092      186.26084      186.63212      673.14786    
     97000  -54796.807      283.03912     -54513.768      186.27957      186.65357      673.37459    
     97100  -54798.06       288.94652     -54509.113      186.29618      186.67114      673.60131    
     97200  -54794.021      291.26386     -54502.757      186.31638      186.69181      673.82804    
     97300  -54795.823      291.94076     -54503.882      186.33393      186.70776      674.05476    
     97400  -54793.235      283.72371     -54509.511      186.35076      186.72226      674.28149    
     97500  -54799.733      289.4049      -54510.328      186.3653       186.73502      674.50821    
     97600  -54793.062      287.32946     -54505.733      186.37838      186.74765      674.73494    
     97700  -54784.886      288.78137     -54496.105      186.38782      186.75426      674.96166    
     97800  -54782.095      297.92074     -54484.174      186.39916      186.76034      675.18839    
     97900  -54774.17       296.91265     -54477.257      186.40681      186.76226      675.41511    
     98000  -54775.243      292.82153     -54482.421      186.41269      186.75962      675.64184    
     98100  -54784.63       287.60613     -54497.024      186.41543      186.75321      675.86856    
     98200  -54795.274      286.46721     -54508.807      186.41546      186.74191      676.09529    
     98300  -54799.241      286.42447     -54512.816      186.41322      186.72861      676.32202    
     98400  -54803.219      293.3129      -54509.906      186.40672      186.71029      676.54874    
     98500  -54798.933      291.75531     -54507.178      186.39843      186.68722      676.77547    
     98600  -54807.876      295.6399      -54512.236      186.38806      186.65957      677.00219    
     98700  -54822.673      293.41279     -54529.26       186.37652      186.62801      677.22892    
     98800  -54831.285      282.7802      -54548.505      186.36369      186.59231      677.45564    
     98900  -54839.355      283.28064     -54556.075      186.3521       186.55809      677.68237    
     99000  -54839.428      289.32315     -54550.104      186.34252      186.52327      677.90909    
     99100  -54843.022      298.69446     -54544.328      186.3342       186.48866      678.13582    
     99200  -54850.475      298.48186     -54551.993      186.32629      186.45587      678.36254    
     99300  -54856.179      285.7365      -54570.443      186.32136      186.42755      678.58927    
     99400  -54867.627      283.21384     -54584.414      186.31769      186.40144      678.816      
     99500  -54869.827      284.48387     -54585.343      186.31506      186.38216      679.04272    
     99600  -54863.535      287.89259     -54575.643      186.31177      186.36489      679.26945    
     99700  -54865.838      299.55102     -54566.287      186.31075      186.35294      679.49617    
     99800  -54858.904      293.47407     -54565.429      186.31018      186.34462      679.7229     
     99900  -54860.857      289.09419     -54571.762      186.31169      186.34244      679.94962    
    100000  -54860.69       283.7932      -54576.897      186.31299      186.3429       680.17635    
Loop time of 3245.02 on 12 procs for 100000 steps with 7480 atoms

Performance: 2.663 ns/day, 9.014 hours/ns, 30.816 timesteps/s, 230.507 katom-step/s
76.9% CPU use with 12 MPI tasks x 1 OpenMP threads

MPI task timing breakdown:
Section |  min time  |  avg time  |  max time  |%varavg| %total
---------------------------------------------------------------
Pair    | 887.23     | 1026.2     | 1214.3     | 302.9 | 31.62
Neigh   | 2.936      | 4.0844     | 5.4881     |  39.6 |  0.13
Comm    | 486.91     | 688.18     | 880.71     | 424.4 | 21.21
Output  | 5.1942     | 5.3395     | 5.4546     |   3.8 |  0.16
Modify  | 1326.9     | 1380       | 1421.3     |  61.3 | 42.53
Other   |            | 141.2      |            |       |  4.35

Nlocal:        623.333 ave        1063 max         284 min
Histogram: 2 2 1 1 2 0 1 0 2 1
Nghost:        2159.33 ave        3421 max        1210 min
Histogram: 4 0 0 4 0 0 0 0 1 3
Neighs:              0 ave           0 max           0 min
Histogram: 12 0 0 0 0 0 0 0 0 0

Total # of neighbors = 0
Ave neighs/atom = 0
Neighbor list builds = 539
Dangerous builds = 0
Total wall time: 0:54:06
