LAMMPS (2 Aug 2023 - Update 3)
OMP_NUM_THREADS environment is not set. Defaulting to 1 thread. (src/comm.cpp:98)
  using 1 OpenMP thread(s) per MPI task
Reading data file ...
  orthogonal box = (-100 -100 -2.1416495) to (100 100 39.081159)
  4 by 4 by 1 MPI processor grid
  reading atoms ...
  1620 atoms
  read_data CPU = 0.007 seconds
Replication is creating a 1x1x17 = 17 times larger system...
  orthogonal box = (-100 -100 -2.1416495) to (100 100 698.6461)
  2 by 2 by 4 MPI processor grid
  27540 atoms
  replicate CPU = 0.002 seconds
System init for write_data ...
WARNING: Communication cutoff is 0.0. No ghost atoms will be generated. Atoms may get lost. (src/comm_brick.cpp:210)
Reading airebo potential file CH.airebo with DATE: 2011-10-25
Reading airebo potential file CH.airebo with DATE: 2011-10-25
Reading airebo potential file CH.airebo with DATE: 2011-10-25
Neighbor list info ...
  update: every = 1 steps, delay = 0 steps, check = yes
  max neighbors/atom: 2000, page size: 100000
  master list distance cutoff = 13.2
  ghost atom cutoff = 13.2
  binsize = 6.6, bins = 31 31 107
  6 neighbor lists, perpetual/occasional/extra = 6 0 0
  (1) pair airebo, perpetual, skip from (5)
      attributes: full, newton on, ghost
      pair build: skip/ghost
      stencil: none
      bin: none
  (2) pair airebo, perpetual, skip from (5)
      attributes: full, newton on, ghost
      pair build: skip/ghost
      stencil: none
      bin: none
  (3) pair airebo, perpetual, skip from (5)
      attributes: full, newton on, ghost
      pair build: skip/ghost
      stencil: none
      bin: none
  (4) pair lj/cut, perpetual, skip from (6)
      attributes: half, newton on, cut 13
      pair build: skip
      stencil: none
      bin: none
  (5) neighbor class addition, perpetual
      attributes: full, newton on, ghost
      pair build: full/bin/ghost
      stencil: full/ghost/bin/3d
      bin: standard
  (6) neighbor class addition, perpetual
      attributes: half, newton on, cut 13
      pair build: half/bin/atomonly/newton
      stencil: half/bin/3d
      bin: standard
Setting up sd style minimization ...
  Unit style    : metal
  Current step  : 0
Per MPI rank memory allocation (min/avg/max) = 17.13 | 17.51 | 17.89 Mbytes
   Step          Temp          E_pair         E_mol          TotEng         Press     
         0   0             -184445.67      0             -184445.67      3997.0868    
        24   0             -197837.05      0             -197837.05      81.021641    
Loop time of 1.41689 on 16 procs for 24 steps with 27540 atoms

97.9% CPU use with 16 MPI tasks x 1 OpenMP threads

Minimization stats:
  Stopping criterion = energy tolerance
  Energy initial, next-to-last, final = 
     -184445.672306087  -197821.429862059  -197837.053983498
  Force two-norm initial, final = 3443.9196 46.490193
  Force max component initial, final = 177.24911 2.7877205
  Final line search alpha, max atom move = 0.017949923 0.050039368
  Iterations, force evaluations = 24 43

MPI task timing breakdown:
Section |  min time  |  avg time  |  max time  |%varavg| %total
---------------------------------------------------------------
Pair    | 1.1708     | 1.2944     | 1.4012     |   4.8 | 91.35
Neigh   | 0          | 0          | 0          |   0.0 |  0.00
Comm    | 0.0088812  | 0.11277    | 0.22554    |  15.7 |  7.96
Output  | 0          | 0          | 0          |   0.0 |  0.00
Modify  | 0          | 0          | 0          |   0.0 |  0.00
Other   |            | 0.009743   |            |       |  0.69

Nlocal:        1721.25 ave        1800 max        1610 min
Histogram: 4 0 0 0 0 0 4 4 2 2
Nghost:        6207.75 ave        6335 max        6143 min
Histogram: 6 0 4 2 0 0 0 2 0 2
Neighs:              0 ave           0 max           0 min
Histogram: 16 0 0 0 0 0 0 0 0 0

Total # of neighbors = 0
Ave neighs/atom = 0
Neighbor list builds = 0
Dangerous builds = 0
Setting up Verlet run ...
  Unit style    : metal
  Current step  : 24
  Time step     : 0.001
Per MPI rank memory allocation (min/avg/max) = 17.76 | 18.14 | 18.52 Mbytes
   Step          Temp          E_pair         E_mol          TotEng         Press          Volume    
        24   300           -197837.05      0             -196769.15      121.71342      28031510     
Loop time of 3.30616e-05 on 16 procs for 0 steps with 27540 atoms

94.1% CPU use with 16 MPI tasks x 1 OpenMP threads

MPI task timing breakdown:
Section |  min time  |  avg time  |  max time  |%varavg| %total
---------------------------------------------------------------
Pair    | 0          | 0          | 0          |   0.0 |  0.00
Neigh   | 0          | 0          | 0          |   0.0 |  0.00
Comm    | 0          | 0          | 0          |   0.0 |  0.00
Output  | 0          | 0          | 0          |   0.0 |  0.00
Modify  | 0          | 0          | 0          |   0.0 |  0.00
Other   |            | 3.306e-05  |            |       |100.00

Nlocal:        1721.25 ave        1797 max        1634 min
Histogram: 4 0 0 0 0 4 2 2 2 2
Nghost:         6207.5 ave        6310 max        6147 min
Histogram: 4 2 2 2 2 0 0 2 0 2
Neighs:              0 ave           0 max           0 min
Histogram: 16 0 0 0 0 0 0 0 0 0

Total # of neighbors = 0
Ave neighs/atom = 0
Neighbor list builds = 0
Dangerous builds = 0
WARNING: Dump 2 includes no atom IDs and is not sorted by ID. This may complicate post-processing tasks or visualization (src/dump.cpp:221)
Setting up Verlet run ...
  Unit style    : metal
  Current step  : 0
  Time step     : 0.001
Per MPI rank memory allocation (min/avg/max) = 19.26 | 19.64 | 20.02 Mbytes
   Step         PotEng         KinEng         TotEng           Lx             Ly             Lz      
         0  -197837.05      1067.9085     -196769.15      200            200            700.78775    
       100  -197408.96      707.92954     -196701.03      199.98512      199.98634      701.13815    
       200  -197408.09      791.02191     -196617.07      199.91695      199.9195       701.48854    
       300  -197408.67      888.2384      -196520.43      200.00544      200.00964      701.83893    
       400  -197357.71      936.15348     -196421.56      200.0066       200.01681      702.18933    
       500  -197266.09      926.59045     -196339.5       199.91951      199.93696      702.53972    
       600  -197312.45      1059.1744     -196253.27      199.96991      199.99549      702.89012    
       700  -197300.67      1124.0728     -196176.59      199.99704      200.03019      703.24051    
       800  -197248.21      1101.6181     -196146.59      199.93703      199.97527      703.5909     
       900  -197187.26      1064.888      -196122.38      199.94778      199.99607      703.9413     
      1000  -197179.55      1072.5604     -196106.99      199.95716      200.006        704.29169    
      1100  -197223.36      1079.5852     -196143.78      199.96084      200.00734      704.64209    
      1200  -197227.3       1055.4127     -196171.89      199.93131      199.98329      704.99248    
      1300  -197211.11      1044.7448     -196166.37      199.94661      200.00311      705.34287    
      1400  -197189.4       1059.7059     -196129.69      199.97089      200.02165      705.69327    
      1500  -197172.6       1056.436      -196116.16      199.93526      199.98087      706.04366    
      1600  -197189.63      1063.8149     -196125.81      199.95091      200.00183      706.39406    
      1700  -197214.14      1073.7237     -196140.42      199.94379      199.9974       706.74445    
      1800  -197217.77      1065.9197     -196151.85      199.93817      199.99816      707.09484    
      1900  -197210.91      1067.989      -196142.92      199.93674      200.01272      707.44524    
      2000  -197198.24      1073.2312     -196125         199.9199       200.0006       707.79563    
      2100  -197191.41      1073.2875     -196118.12      199.9271       200.00678      708.14602    
      2200  -197193         1069.8418     -196123.16      199.92338      200.00686      708.49642    
      2300  -197214.57      1075.938      -196138.63      199.91968      200.00342      708.84681    
      2400  -197217.25      1064.788      -196152.46      199.91743      200.00077      709.19721    
      2500  -197217.93      1061.1818     -196156.75      199.9182       199.99966      709.5476     
      2600  -197209.55      1061.2593     -196148.29      199.91728      200.00262      709.89799    
      2700  -197202         1067.5935     -196134.41      199.9095       199.99948      710.24839    
      2800  -197209.72      1081.441      -196128.27      199.90473      200.00197      710.59878    
      2900  -197204.98      1071.5948     -196133.38      199.90394      200.00706      710.94918    
      3000  -197211.84      1067.8814     -196143.96      199.89774      200.00331      711.29957    
      3100  -197205.01      1057.7195     -196147.29      199.89194      199.99814      711.64996    
      3200  -197200.01      1062.0788     -196137.93      199.89377      199.99831      712.00036    
      3300  -197194.46      1075.4957     -196118.96      199.89398      199.99657      712.35075    
      3400  -197173.33      1069.7666     -196103.57      199.89523      199.98976      712.70114    
      3500  -197176.38      1072.5515     -196103.83      199.89628      199.98159      713.05154    
      3600  -197188.56      1071.4625     -196117.1       199.89708      199.97357      713.40193    
      3700  -197194         1062.3415     -196131.65      199.90095      199.97149      713.75233    
      3800  -197191.65      1060.8329     -196130.82      199.90065      199.9641       714.10272    
      3900  -197183.13      1066.8876     -196116.25      199.89721      199.95521      714.45311    
      4000  -197167.48      1068.3312     -196099.15      199.89745      199.95266      714.80351    
      4100  -197163.31      1072.6596     -196090.65      199.89619      199.94958      715.1539     
      4200  -197160.55      1071.0691     -196089.48      199.89305      199.9463       715.5043     
      4300  -197155.04      1068.3728     -196086.67      199.89232      199.9386       715.85469    
      4400  -197151.09      1069.2851     -196081.8       199.89323      199.93126      716.20508    
      4500  -197133.95      1062.3592     -196071.59      199.89365      199.92679      716.55548    
      4600  -197122.04      1067.8166     -196054.23      199.89297      199.92332      716.90587    
      4700  -197118.89      1077.3342     -196041.56      199.88801      199.91936      717.25627    
      4800  -197110.82      1072.4284     -196038.39      199.88245      199.91596      717.60666    
      4900  -197098.72      1063.2608     -196035.46      199.87656      199.91572      717.95705    
      5000  -197091.94      1066.6941     -196025.24      199.86605      199.91512      718.30745    
      5100  -197078.4       1067.0747     -196011.32      199.85651      199.9204       718.65784    
      5200  -197063.77      1060.2374     -196003.54      199.8461       199.92456      719.00823    
      5300  -197063.42      1065.1059     -195998.31      199.83236      199.92574      719.35863    
      5400  -197054.81      1062.2719     -195992.54      199.82151      199.93045      719.70902    
      5500  -197037.47      1056.2579     -195981.21      199.81249      199.9331       720.05942    
      5600  -197026.68      1065.3265     -195961.35      199.80467      199.92888      720.40981    
      5700  -197023.3       1074.6198     -195948.68      199.80319      199.92276      720.7602     
      5800  -197015.34      1067.8478     -195947.49      199.80613      199.91562      721.1106     
      5900  -196998.78      1058.3121     -195940.47      199.80712      199.90341      721.46099    
      6000  -196981.8       1057.7578     -195924.05      199.80674      199.89583      721.81139    
      6100  -196980.19      1076.0164     -195904.17      199.8027       199.89043      722.16178    
      6200  -196961.23      1064.2527     -195896.98      199.79536      199.88221      722.51217    
      6300  -196952.8       1059.4126     -195893.39      199.78985      199.87769      722.86257    
      6400  -196948.43      1067.5323     -195880.9       199.78161      199.87301      723.21296    
      6500  -196928.2       1068.0677     -195860.13      199.77927      199.8698       723.56335    
      6600  -196907.93      1070.8156     -195837.11      199.77561      199.85987      723.91375    
      6700  -196909.12      1086.483      -195822.64      199.77226      199.8482       724.26414    
      6800  -196891.9       1069.5236     -195822.38      199.7683       199.84117      724.61454    
      6900  -196888.93      1065.5154     -195823.42      199.76009      199.83669      724.96493    
      7000  -196881.78      1066.6112     -195815.17      199.75138      199.83621      725.31532    
      7100  -196865.28      1064.0014     -195801.28      199.74223      199.83457      725.66572    
      7200  -196852.79      1065.1187     -195787.67      199.73304      199.83094      726.01611    
      7300  -196832.41      1064.2108     -195768.2       199.72418      199.82547      726.36651    
      7400  -196817.1       1071.6015     -195745.5       199.71802      199.81794      726.7169     
      7500  -196812.78      1083.9738     -195728.8       199.7151       199.80758      727.06729    
      7600  -196793.3       1070.134      -195723.16      199.71501      199.79422      727.41769    
      7700  -196782.16      1061.9077     -195720.26      199.7156       199.77736      727.76808    
      7800  -196765.79      1062.4227     -195703.36      199.71816      199.76324      728.11848    
      7900  -196750.12      1071.5866     -195678.53      199.7215       199.75197      728.46887    
      8000  -196737.43      1077.3639     -195660.07      199.71956      199.73741      728.81926    
      8100  -196724.31      1075.923      -195648.39      199.71866      199.72461      729.16966    
      8200  -196710.97      1068.5224     -195642.45      199.71992      199.71692      729.52005    
      8300  -196691.6       1060.527      -195631.08      199.71522      199.70206      729.87044    
      8400  -196678.34      1068.5786     -195609.77      199.70811      199.68749      730.22084    
      8500  -196659.41      1071.2519     -195588.16      199.70522      199.68095      730.57123    
      8600  -196640.25      1069.7745     -195570.48      199.69905      199.66923      730.92163    
      8700  -196626.26      1066.8098     -195559.45      199.69216      199.65448      731.27202    
      8800  -196615.24      1063.6705     -195551.57      199.68965      199.64738      731.62241    
      8900  -196597.85      1065.2937     -195532.55      199.68445      199.63747      731.97281    
      9000  -196568.83      1063.2917     -195505.54      199.67592      199.62592      732.3232     
      9100  -196548.88      1071.2463     -195477.63      199.67024      199.61816      732.6736     
      9200  -196525.83      1065.925      -195459.9       199.66317      199.60642      733.02399    
      9300  -196510.85      1062.7419     -195448.11      199.6549       199.5952       733.37438    
      9400  -196497.94      1058.6376     -195439.3       199.64433      199.58262      733.72478    
      9500  -196488.09      1065.9077     -195422.18      199.63454      199.56814      734.07517    
      9600  -196463.79      1063.4461     -195400.34      199.63194      199.56262      734.42557    
      9700  -196438.09      1070.9862     -195367.11      199.62825      199.55291      734.77596    
      9800  -196417.69      1077.1582     -195340.54      199.6231       199.53885      735.12635    
      9900  -196401.51      1071.513      -195329.99      199.62234      199.52679      735.47675    
     10000  -196386.93      1064.9622     -195321.96      199.61797      199.51096      735.82714    
     10100  -196370.74      1062.4399     -195308.3       199.61234      199.49316      736.17753    
     10200  -196344.88      1058.6146     -195286.27      199.60864      199.48074      736.52793    
     10300  -196325.84      1071.2059     -195254.64      199.60291      199.46689      736.87832    
     10400  -196309.52      1073.6212     -195235.9       199.59499      199.45096      737.22872    
     10500  -196293.64      1073.9502     -195219.69      199.58833      199.43805      737.57911    
     10600  -196268.85      1062.7491     -195206.1       199.57804      199.425        737.9295     
     10700  -196249.76      1063.1451     -195186.61      199.56828      199.41343      738.2799     
     10800  -196233.7       1071.3124     -195162.39      199.56104      199.40522      738.63029    
     10900  -196216.35      1074.0101     -195142.34      199.55233      199.39675      738.98069    
     11000  -196196.42      1067.1577     -195129.26      199.53993      199.38318      739.33108    
     11100  -196181.23      1065.08       -195116.15      199.52754      199.3694       739.68147    
     11200  -196157.24      1062.5231     -195094.71      199.5175       199.35665      740.03187    
     11300  -196135.05      1065.8339     -195069.22      199.50793      199.34169      740.38226    
     11400  -196116.66      1071.7657     -195044.89      199.49799      199.32596      740.73265    
     11500  -196093.82      1065.2281     -195028.59      199.48825      199.31561      741.08305    
     11600  -196085.86      1072.2961     -195013.57      199.47791      199.30576      741.43344    
     11700  -196054.77      1063.6838     -194991.09      199.46584      199.29763      741.78384    
     11800  -196033.9       1067.1536     -194966.74      199.45272      199.28689      742.13423    
     11900  -196005.76      1066.2328     -194939.53      199.44021      199.27618      742.48462    
     12000  -195974.13      1066.4569     -194907.67      199.42874      199.26665      742.83502    
     12100  -195958.79      1077.5701     -194881.22      199.41644      199.2547       743.18541    
     12200  -195940.26      1068.7829     -194871.47      199.40518      199.24231      743.53581    
     12300  -195921.44      1066.4621     -194854.98      199.39659      199.22859      743.8862     
     12400  -195891         1064.8124     -194826.19      199.38593      199.20795      744.23659    
     12500  -195863.09      1068.5082     -194794.59      199.37851      199.18916      744.58699    
     12600  -195839.02      1067.4841     -194771.53      199.36893      199.17         744.93738    
     12700  -195827.95      1068.6425     -194759.31      199.35683      199.15013      745.28778    
     12800  -195801.92      1060.4534     -194741.47      199.34783      199.13815      745.63817    
     12900  -195774.8       1064.3393     -194710.46      199.334        199.12368      745.98856    
     13000  -195743.08      1067.4711     -194675.61      199.32371      199.11097      746.33896    
     13100  -195721.21      1071.8567     -194649.36      199.31694      199.09673      746.68935    
     13200  -195701.71      1070.08       -194631.63      199.30631      199.07486      747.03974    
     13300  -195687.07      1070.0235     -194617.04      199.2991       199.05522      747.39014    
     13400  -195652.71      1057.8071     -194594.9       199.29419      199.03523      747.74053    
     13500  -195627.44      1075.6039     -194551.83      199.2858       199.01354      748.09093    
     13600  -195596.41      1071.8858     -194524.53      199.27879      198.99873      748.44132    
     13700  -195575.16      1068.8191     -194506.34      199.27073      198.98423      748.79171    
     13800  -195558.54      1069.043      -194489.49      199.25846      198.96604      749.14211    
     13900  -195533.45      1065.4555     -194468         199.24937      198.95103      749.4925     
     14000  -195497.27      1060.7631     -194436.51      199.23962      198.93115      749.8429     
     14100  -195468.48      1071.1565     -194397.33      199.2297       198.91133      750.19329    
     14200  -195448.27      1075.2775     -194372.99      199.22061      198.89358      750.54368    
     14300  -195427.45      1069.6329     -194357.82      199.20959      198.86969      750.89408    
     14400  -195405.06      1069.3604     -194335.7       199.20091      198.84545      751.24447    
     14500  -195381.58      1071.9042     -194309.68      199.19706      198.82432      751.59487    
     14600  -195353.62      1075.2359     -194278.39      199.18869      198.79991      751.94526    
     14700  -195318.08      1073.5711     -194244.5       199.17933      198.77794      752.29565    
     14800  -195302.83      1076.7771     -194226.05      199.17025      198.75787      752.64605    
     14900  -195286.72      1075.2768     -194211.45      199.15845      198.73786      752.99644    
     15000  -195242.07      1057.4231     -194184.65      199.1483       198.72106      753.34683    
     15100  -195223.07      1074.7676     -194148.31      199.13681      198.70155      753.69723    
     15200  -195185.27      1068.8515     -194116.42      199.12793      198.68203      754.04762    
     15300  -195156.31      1066.2293     -194090.08      199.12208      198.66227      754.39802    
     15400  -195142.5       1064.8791     -194077.62      199.11195      198.63749      754.74841    
     15500  -195119.38      1066.709      -194052.67      199.09976      198.61592      755.0988     
     15600  -195085.42      1070.0808     -194015.34      199.08917      198.59971      755.4492     
     15700  -195059.89      1076.4709     -193983.42      199.07546      198.58011      755.79959    
     15800  -195031.98      1072.0969     -193959.88      199.06255      198.56118      756.14999    
     15900  -194996.98      1060.9474     -193936.03      199.05406      198.54252      756.50038    
     16000  -194977.65      1067.4255     -193910.23      199.0431       198.52005      756.85077    
     16100  -194967.04      1072.6543     -193894.39      199.03177      198.49889      757.20117    
     16200  -194921.35      1054.9867     -193866.36      199.02168      198.48029      757.55156    
     16300  -194896.3       1071.2838     -193825.02      199.0083       198.45812      757.90195    
     16400  -194861.48      1070.4524     -193791.03      198.99644      198.43908      758.25235    
     16500  -194838.63      1081.3383     -193757.29      198.98368      198.41838      758.60274    
     16600  -194802.9       1070.0871     -193732.81      198.97439      198.39939      758.95314    
     16700  -194785.5       1069.5668     -193715.94      198.9667       198.38305      759.30353    
     16800  -194756.32      1065.7602     -193690.56      198.95294      198.36205      759.65392    
     16900  -194725.3       1067.6514     -193657.65      198.93965      198.34284      760.00432    
     17000  -194691.34      1066.1452     -193625.19      198.92481      198.32375      760.35471    
     17100  -194662.57      1067.035      -193595.53      198.90803      198.30266      760.70511    
     17200  -194627.51      1063.2149     -193564.29      198.89647      198.28499      761.0555     
     17300  -194595.25      1071.6152     -193523.63      198.88361      198.2663       761.40589    
     17400  -194571.68      1082.8657     -193488.82      198.87034      198.24774      761.75629    
     17500  -194547.16      1072.4802     -193474.68      198.85908      198.23112      762.10668    
     17600  -194518.53      1067.2036     -193451.33      198.84488      198.21455      762.45708    
     17700  -194492.54      1065.5757     -193426.97      198.8294       198.19965      762.80747    
     17800  -194460.87      1062.2348     -193398.63      198.81491      198.18557      763.15786    
     17900  -194441.49      1073.6798     -193367.81      198.79971      198.16525      763.50826    
     18000  -194396.24      1064.5815     -193331.66      198.78811      198.1439       763.85865    
     18100  -194362.74      1072.4043     -193290.34      198.77782      198.12151      764.20904    
     18200  -194332.44      1072.7305     -193259.71      198.76427      198.09828      764.55944    
     18300  -194310.24      1069.186      -193241.06      198.74998      198.07536      764.90983    
     18400  -194279.51      1066.9684     -193212.54      198.73582      198.05371      765.26023    
     18500  -194249.88      1068.2739     -193181.61      198.72363      198.03425      765.61062    
     18600  -194212.16      1062.6824     -193149.48      198.71232      198.01852      765.96101    
     18700  -194181.94      1070.2013     -193111.74      198.7          198.00441      766.31141    
     18800  -194134.77      1064.0763     -193070.69      198.68632      197.99075      766.6618     
     18900  -194100.81      1068.4757     -193032.33      198.67016      197.97552      767.0122     
     19000  -194070.24      1064.1334     -193006.11      198.65287      197.96219      767.36259    
     19100  -194049.1       1061.2514     -192987.85      198.63573      197.95047      767.71298    
     19200  -194014.65      1060.3907     -192954.26      198.6178       197.93684      768.06338    
     19300  -193983.62      1070.833      -192912.79      198.6006       197.92477      768.41377    
     19400  -193944.27      1070.6804     -192873.59      198.58065      197.90991      768.76417    
     19500  -193902.96      1062.6978     -192840.27      198.56327      197.89521      769.11456    
     19600  -193871.06      1061.6963     -192809.36      198.54921      197.88414      769.46495    
     19700  -193845.21      1063.8965     -192781.32      198.53464      197.87304      769.81535    
     19800  -193819.66      1061.251      -192758.41      198.51958      197.86172      770.16574    
     19900  -193784.68      1062.125      -192722.56      198.49938      197.84818      770.51613    
     20000  -193744.91      1066.1214     -192678.79      198.48033      197.83328      770.86653    
     20100  -193713.33      1069.2761     -192644.05      198.46414      197.81765      771.21692    
     20200  -193681.09      1065.7683     -192615.32      198.44539      197.79883      771.56732    
     20300  -193655.48      1070.3371     -192585.15      198.42979      197.78254      771.91771    
     20400  -193619.23      1063.5103     -192555.72      198.41872      197.77025      772.2681     
     20500  -193587.14      1063.7477     -192523.4       198.40664      197.75613      772.6185     
     20600  -193559.85      1069.5139     -192490.34      198.39393      197.7402       772.96889    
     20700  -193522.49      1068.0085     -192454.48      198.38236      197.72521      773.31929    
     20800  -193484.19      1069.5082     -192414.68      198.37068      197.70885      773.66968    
     20900  -193445.53      1069.236      -192376.3       198.36021      197.68977      774.02007    
     21000  -193420.58      1074.6806     -192345.9       198.34949      197.67294      774.37047    
     21100  -193376.29      1054.7588     -192321.53      198.33547      197.65886      774.72086    
     21200  -193354.8       1069.9984     -192284.8       198.32057      197.64593      775.07125    
     21300  -193302.01      1061.6423     -192240.37      198.30649      197.63202      775.42165    
     21400  -193274.26      1074.3123     -192199.95      198.29248      197.61445      775.77204    
     21500  -193236.57      1067.9357     -192168.63      198.2806       197.59762      776.12244    
     21600  -193201.81      1061.3002     -192140.51      198.26947      197.58315      776.47283    
     21700  -193177.05      1068.4393     -192108.61      198.25585      197.56731      776.82322    
     21800  -193136.79      1067.6321     -192069.16      198.24004      197.5525       777.17362    
     21900  -193093.92      1073.6144     -192020.3       198.22293      197.53754      777.52401    
     22000  -193061.98      1077.4822     -191984.5       198.207        197.52102      777.87441    
     22100  -193025.2       1068.0252     -191957.18      198.19736      197.50821      778.2248     
     22200  -192989.38      1066.9265     -191922.45      198.18884      197.49357      778.57519    
     22300  -192955.97      1069.9971     -191885.97      198.18216      197.47707      778.92559    
     22400  -192914.79      1063.7385     -191851.05      198.17506      197.4632       779.27598    
     22500  -192889.07      1068.3338     -191820.74      198.1619       197.44884      779.62638    
     22600  -192848.4       1058.3228     -191790.07      198.14702      197.43564      779.97677    
     22700  -192812.96      1065.496      -191747.46      198.13275      197.42336      780.32716    
     22800  -192773.71      1074.4922     -191699.22      198.11882      197.4091       780.67756    
     22900  -192727.94      1065.6681     -191662.27      198.10508      197.39248      781.02795    
     23000  -192699.06      1071.4173     -191627.65      198.09267      197.37464      781.37834    
     23100  -192660.08      1064.76       -191595.32      198.08092      197.35792      781.72874    
     23200  -192630.45      1062.9802     -191567.47      198.06954      197.34528      782.07913    
     23300  -192595.25      1071.7813     -191523.47      198.05556      197.33143      782.42953    
     23400  -192546.38      1068.0318     -191478.35      198.04248      197.31884      782.77992    
     23500  -192503.55      1064.0663     -191439.49      198.02893      197.30904      783.13031    
     23600  -192470.68      1068.1104     -191402.56      198.0124       197.29804      783.48071    
     23700  -192438.5       1070.6748     -191367.83      197.996        197.28685      783.8311     
     23800  -192398.74      1067.7983     -191330.94      197.98288      197.27613      784.1815     
     23900  -192358.1       1064.3325     -191293.76      197.97142      197.26366      784.53189    
     24000  -192322.55      1067.7759     -191254.78      197.96219      197.25253      784.88228    
     24100  -192282.69      1068.2436     -191214.44      197.95384      197.24329      785.23268    
     24200  -192247.28      1076.7314     -191170.55      197.94082      197.23042      785.58307    
     24300  -192215.69      1077.6059     -191138.08      197.92603      197.21697      785.93346    
     24400  -192177.53      1066.8972     -191110.63      197.91444      197.20463      786.28386    
     24500  -192143.33      1066.612      -191076.72      197.90217      197.19016      786.63425    
     24600  -192096.3       1057.7044     -191038.59      197.8883       197.17608      786.98465    
     24700  -192066.5       1074.4991     -190992         197.872        197.16281      787.33504    
     24800  -192014.44      1073.8903     -190940.55      197.85536      197.1503       787.68543    
     24900  -191974.5       1067.4862     -190907.01      197.84139      197.13896      788.03583    
     25000  -191949.26      1073.9017     -190875.36      197.82817      197.12689      788.38622    
     25100  -191911.83      1068.1023     -190843.73      197.81922      197.11935      788.73662    
     25200  -191874.48      1068.3935     -190806.09      197.80847      197.10887      789.08701    
     25300  -191832.5       1066.7348     -190765.77      197.79828      197.096        789.4374     
     25400  -191795.76      1072.1467     -190723.62      197.79087      197.08436      789.7878     
     25500  -191747.19      1073.2246     -190673.96      197.77893      197.06812      790.13819    
     25600  -191711.42      1077.771      -190633.65      197.76561      197.05367      790.48859    
     25700  -191673.64      1069.4425     -190604.19      197.751        197.04168      790.83898    
     25800  -191635.61      1065.3173     -190570.29      197.73461      197.02782      791.18937    
     25900  -191599.5       1070.2721     -190529.22      197.72233      197.01416      791.53977    
     26000  -191550.9       1064.3743     -190486.52      197.71301      196.99951      791.89016    
     26100  -191505.13      1073.8768     -190431.25      197.70297      196.98324      792.24055    
     26200  -191464.27      1076.7961     -190387.47      197.69544      196.97026      792.59095    
     26300  -191424.14      1069.8011     -190354.34      197.68452      196.95761      792.94134    
     26400  -191389.76      1068.1459     -190321.62      197.67088      196.94452      793.29174    
     26500  -191352.92      1065.0322     -190287.89      197.66095      196.93446      793.64213    
     26600  -191311.94      1066.7251     -190245.21      197.65121      196.92431      793.99252    
     26700  -191262.44      1075.7074     -190186.73      197.63928      196.91183      794.34292    
     26800  -191214.03      1070.4098     -190143.62      197.628        196.9006       794.69331    
     26900  -191172.31      1063.2558     -190109.06      197.61624      196.88785      795.04371    
     27000  -191144.82      1067.7935     -190077.02      197.60787      196.87619      795.3941     
     27100  -191103.16      1066.961      -190036.2       197.6009       196.86598      795.74449    
     27200  -191054.53      1069.4076     -189985.12      197.58977      196.85194      796.09489    
     27300  -191016.4       1082.0168     -189934.38      197.58011      196.83861      796.44528    
     27400  -190974.82      1077.6066     -189897.22      197.56927      196.82541      796.79568    
     27500  -190932.92      1070.5361     -189862.38      197.55702      196.81151      797.14607    
     27600  -190897.39      1068.2822     -189829.11      197.54565      196.79585      797.49646    
     27700  -190851.74      1065.9127     -189785.83      197.53421      196.77847      797.84686    
     27800  -190812.66      1078.2093     -189734.45      197.52552      196.761        798.19725    
     27900  -190762         1070.1791     -189691.82      197.51651      196.74512      798.54764    
     28000  -190737.51      1076.8722     -189660.64      197.50597      196.73214      798.89804    
     28100  -190697.07      1073.3472     -189623.72      197.49375      196.72024      799.24843    
     28200  -190645.38      1060.4749     -189584.9       197.48035      196.70835      799.59883    
     28300  -190605.78      1060.5982     -189545.18      197.4709       196.69887      799.94922    
     28400  -190566.9       1070.2633     -189496.63      197.4597       196.68844      800.29961    
     28500  -190520.66      1074.699      -189445.96      197.44851      196.67816      800.65001    
     28600  -190468.29      1067.2467     -189401.04      197.44054      196.6697       801.0004     
     28700  -190436.53      1067.557      -189368.97      197.43131      196.65739      801.3508     
     28800  -190404.83      1067.6771     -189337.16      197.42113      196.64412      801.70119    
     28900  -190355.32      1064.4353     -189290.88      197.41066      196.63095      802.05158    
     29000  -190312.8       1070.7746     -189242.02      197.39767      196.61501      802.40198    
     29100  -190268.28      1071.7503     -189196.53      197.38575      196.6004       802.75237    
     29200  -190216.47      1068.3879     -189148.08      197.37284      196.58563      803.10276    
     29300  -190176.23      1073.857      -189102.38      197.36146      196.57225      803.45316    
     29400  -190137.19      1068.0786     -189069.11      197.35161      196.56         803.80355    
     29500  -190098.68      1063.4349     -189035.24      197.34038      196.5464       804.15395    
     29600  -190057.85      1065.7052     -188992.14      197.33268      196.5358       804.50434    
     29700  -190009.46      1065.6896     -188943.77      197.32399      196.52608      804.85473    
     29800  -189961.49      1073.8785     -188887.61      197.31261      196.51485      805.20513    
     29900  -189913.17      1071.94       -188841.23      197.30317      196.50483      805.55552    
     30000  -189877.55      1073.42       -188804.13      197.28972      196.49318      805.90592    
     30100  -189828.31      1059.1386     -188769.18      197.27563      196.48115      806.25631    
     30200  -189789.45      1059.4792     -188729.97      197.26549      196.47186      806.6067     
     30300  -189744.27      1061.8719     -188682.39      197.25067      196.45838      806.9571     
     30400  -189702.25      1076.2638     -188625.99      197.23804      196.44476      807.30749    
     30500  -189654.27      1073.2142     -188581.06      197.22875      196.43193      807.65789    
     30600  -189616.14      1070.1795     -188545.96      197.21677      196.4173       808.00828    
     30700  -189577.42      1068.6936     -188508.73      197.2078       196.40536      808.35867    
     30800  -189540.43      1070.8682     -188469.56      197.19938      196.39315      808.70907    
     30900  -189496.58      1068.4086     -188428.18      197.18737      196.37923      809.05946    
     31000  -189441.97      1067.5728     -188374.4       197.17747      196.36858      809.40985    
     31100  -189394.37      1072.4569     -188321.91      197.16588      196.35817      809.76025    
     31200  -189342.68      1061.9017     -188280.77      197.15208      196.34569      810.11064    
     31300  -189311.05      1063.6922     -188247.35      197.14173      196.33416      810.46104    
     31400  -189268.94      1062.3435     -188206.6       197.12785      196.32035      810.81143    
     31500  -189220.23      1061.5692     -188158.66      197.11541      196.30787      811.16182    
     31600  -189182.2       1070.7576     -188111.44      197.10565      196.29706      811.51222    
     31700  -189136.51      1069.6643     -188066.84      197.09338      196.2849       811.86261    
     31800  -189093.27      1062.9491     -188030.33      197.08261      196.27425      812.21301    
     31900  -189054.71      1059.3425     -187995.37      197.07039      196.26305      812.5634     
     32000  -189005.53      1061.7285     -187943.81      197.05629      196.24974      812.91379    
     32100  -188958.56      1069.9605     -187888.6       197.04719      196.23865      813.26419    
     32200  -188907.26      1065.9377     -187841.33      197.03676      196.22613      813.61458    
     32300  -188862.05      1066.2666     -187795.79      197.02452      196.21362      813.96498    
     32400  -188815.43      1064.8939     -187750.53      197.01728      196.2042       814.31537    
     32500  -188768.1       1067.3756     -187700.73      197.00592      196.19139      814.66576    
     32600  -188726.02      1072.9939     -187653.03      196.99368      196.17763      815.01616    
     32700  -188687.85      1069.4003     -187618.45      196.98546      196.16622      815.36655    
     32800  -188645.97      1066.1176     -187579.85      196.97349      196.15301      815.71694    
     32900  -188592.01      1059.3263     -187532.68      196.95963      196.13935      816.06734    
     33000  -188547.09      1068.3194     -187478.78      196.94652      196.12665      816.41773    
     33100  -188497.65      1072.8345     -187424.82      196.93394      196.11249      816.76813    
     33200  -188450.83      1071.6209     -187379.2       196.92383      196.09831      817.11852    
     33300  -188415.51      1067.7841     -187347.72      196.91369      196.08396      817.46891    
     33400  -188368.4       1062.6534     -187305.75      196.90376      196.07091      817.81931    
     33500  -188324.79      1071.3102     -187253.48      196.89268      196.05877      818.1697     
     33600  -188274.35      1073.2769     -187201.07      196.8806       196.04776      818.5201     
     33700  -188220.55      1064.6845     -187155.86      196.86864      196.03847      818.87049    
     33800  -188186.82      1065.6874     -187121.13      196.85457      196.02886      819.22088    
     33900  -188135.24      1054.7619     -187080.47      196.84216      196.02023      819.57128    
     34000  -188080.6       1057.3617     -187023.24      196.83033      196.01111      819.92167    
     34100  -188042.12      1073.4579     -186968.67      196.81833      196.00093      820.27206    
     34200  -187990.95      1072.1142     -186918.83      196.80898      195.99093      820.62246    
     34300  -187941.72      1073.1525     -186868.56      196.7982       195.97893      820.97285    
     34400  -187873.27      1061.3974     -186811.87      196.78565      195.96551      821.32325    
     34500  -187843.67      1082.0374     -186761.63      196.77227      195.95297      821.67364    
     34600  -187793.9       1071.6883     -186722.21      196.75754      195.93994      822.02403    
     34700  -187744.08      1063.8251     -186680.25      196.74251      195.9259       822.37443    
     34800  -187701.11      1064.0574     -186637.06      196.7295       195.91234      822.72482    
     34900  -187657.17      1070.2596     -186586.91      196.7161       195.8995       823.07522    
     35000  -187600.2       1071.0608     -186529.14      196.70374      195.88842      823.42561    
     35100  -187553.68      1074.6974     -186478.98      196.69132      195.87881      823.776      
     35200  -187504.62      1069.162      -186435.46      196.67722      195.87053      824.1264     
     35300  -187459.05      1068.8071     -186390.24      196.66565      195.86443      824.47679    
     35400  -187399.79      1061.1093     -186338.68      196.65016      195.85483      824.82719    
     35500  -187357.83      1073.4549     -186284.37      196.63676      195.84586      825.17758    
     35600  -187301.14      1070.9802     -186230.15      196.62403      195.83606      825.52797    
     35700  -187251.33      1071.2616     -186180.07      196.60929      195.82324      825.87837    
     35800  -187210.66      1068.8656     -186141.8       196.5998       195.81289      826.22876    
     35900  -187170.11      1065.976      -186104.14      196.58847      195.80103      826.57915    
     36000  -187116.24      1061.9063     -186054.33      196.5748       195.78703      826.92955    
     36100  -187064.65      1066.9689     -185997.68      196.56346      195.77362      827.27994    
     36200  -187022.15      1076.1837     -185945.97      196.55043      195.75808      827.63034    
     36300  -186968.37      1064.589      -185903.78      196.53752      195.74237      827.98073    
     36400  -186930.25      1058.3779     -185871.87      196.52662      195.72849      828.33112    
     36500  -186884.44      1062.0244     -185822.41      196.51449      195.71435      828.68152    
     36600  -186826.38      1061.7596     -185764.63      196.50221      195.70262      829.03191    
     36700  -186785.58      1074.5296     -185711.05      196.49179      195.69517      829.38231    
     36800  -186729.59      1070.1354     -185659.45      196.47863      195.68673      829.7327     
     36900  -186676.52      1070.1772     -185606.34      196.46712      195.67925      830.08309    
     37000  -186616.86      1070.4432     -185546.42      196.45546      195.67126      830.43349    
     37100  -186571.75      1078.8137     -185492.94      196.439        195.65947      830.78388    
     37200  -186528.79      1074.7483     -185454.04      196.42444      195.64915      831.13428    
     37300  -186482.5       1071.644      -185410.86      196.40738      195.63714      831.48467    
     37400  -186433.56      1068.2679     -185365.29      196.39088      195.62455      831.83506    
     37500  -186391.63      1069.986      -185321.65      196.37953      195.61501      832.18546    
     37600  -186344.2       1064.2027     -185279.99      196.36443      195.6028       832.53585    
     37700  -186302.21      1065.6955     -185236.51      196.35216      195.59016      832.88624    
     37800  -186248.55      1071.0217     -185177.53      196.34359      195.5788       833.23664    
     37900  -186188.82      1069.5126     -185119.3       196.32853      195.56499      833.58703    
     38000  -186136.16      1069.0087     -185067.15      196.31354      195.55336      833.93743    
     38100  -186088.99      1068.6506     -185020.34      196.29878      195.54358      834.28782    
     38200  -186040.58      1062.5799     -184978         196.28003      195.53295      834.63821    
     38300  -185994.3       1060.2542     -184934.05      196.2644       195.52526      834.98861    
     38400  -185946.61      1066.9966     -184879.61      196.24904      195.51717      835.339      
     38500  -185888.5       1067.9129     -184820.59      196.23344      195.50802      835.6894     
     38600  -185842.97      1076.7427     -184766.23      196.22061      195.49911      836.03979    
     38700  -185790.16      1068.3654     -184721.79      196.20796      195.48851      836.39018    
     38800  -185747.6       1065.3575     -184682.24      196.19509      195.47642      836.74058    
     38900  -185697.66      1065.7102     -184631.95      196.18381      195.4654       837.09097    
     39000  -185641.42      1066.8794     -184574.54      196.17059      195.45394      837.44136    
     39100  -185587.46      1068.6735     -184518.79      196.15473      195.44093      837.79176    
     39200  -185541.52      1069.5954     -184471.92      196.14109      195.4293       838.14215    
     39300  -185495.61      1062.029      -184433.59      196.12659      195.41689      838.49255    
     39400  -185447.37      1056.6582     -184390.71      196.11078      195.40298      838.84294    
     39500  -185396.68      1067.3545     -184329.33      196.09691      195.39092      839.19333    
     39600  -185337.84      1067.8989     -184269.94      196.08214      195.37864      839.54373    
     39700  -185292.95      1070.7508     -184222.2       196.07021      195.36753      839.89412    
     39800  -185244.21      1065.8593     -184178.35      196.0581       195.35709      840.24452    
     39900  -185198.95      1065.1956     -184133.75      196.04455      195.34626      840.59491    
     40000  -185151.62      1064.2475     -184087.37      196.0327       195.33533      840.9453     
     40100  -185103.14      1068.1097     -184035.03      196.01932      195.3238       841.2957     
     40200  -185045.24      1072.2343     -183973.01      196.00499      195.31282      841.64609    
     40300  -184992.96      1073.4962     -183919.46      195.99327      195.30253      841.99649    
     40400  -184945.92      1072.1817     -183873.74      195.97927      195.28966      842.34688    
     40500  -184897.83      1063.0364     -183834.79      195.96632      195.27668      842.69727    
     40600  -184848.97      1059.9509     -183789.02      195.95489      195.2631       843.04767    
     40700  -184792.71      1069.9848     -183722.72      195.94007      195.24715      843.39806    
     40800  -184738.54      1068.7131     -183669.83      195.92701      195.23307      843.74845    
     40900  -184695.87      1071.8653     -183624         195.91552      195.22106      844.09885    
     41000  -184650.04      1067.5921     -183582.45      195.90086      195.20833      844.44924    
     41100  -184592.77      1058.5488     -183534.22      195.88768      195.19725      844.79964    
     41200  -184544.86      1070.4066     -183474.45      195.87631      195.18731      845.15003    
     41300  -184478.72      1064.5565     -183414.16      195.86226      195.17545      845.50042    
     41400  -184432.23      1067.0234     -183365.21      195.84956      195.16452      845.85082    
     41500  -184388.23      1067.9776     -183320.25      195.8353       195.15301      846.20121    
     41600  -184345.58      1067.0502     -183278.53      195.82005      195.14019      846.55161    
     41700  -184302.37      1062.2859     -183240.09      195.80741      195.12886      846.902      
     41800  -184243.35      1057.8719     -183185.48      195.7903       195.1167       847.25239    
     41900  -184187.57      1070.0012     -183117.57      195.77287      195.10486      847.60279    
     42000  -184135.81      1072.5542     -183063.25      195.75987      195.09525      847.95318    
     42100  -184084.76      1072.2641     -183012.5       195.74254      195.08347      848.30358    
     42200  -184034.79      1070.3257     -182964.46      195.7282       195.07242      848.65397    
     42300  -183984.25      1063.5054     -182920.74      195.71862      195.06252      849.00436    
     42400  -183934.28      1059.9964     -182874.28      195.70287      195.04925      849.35476    
     42500  -183881.6       1064.4369     -182817.17      195.69076      195.03864      849.70515    
     42600  -183825.55      1071.6179     -182753.93      195.67983      195.02857      850.05554    
     42700  -183777.8       1075.1274     -182702.67      195.66151      195.01594      850.40594    
     42800  -183729.9       1072.3799     -182657.52      195.64664      195.0071       850.75633    
     42900  -183683.24      1066.6761     -182616.57      195.63005      194.99707      851.10673    
     43000  -183633.71      1057.9577     -182575.75      195.61031      194.98561      851.45712    
     43100  -183583.91      1062.9075     -182521         195.59656      194.97747      851.80751    
     43200  -183521.64      1068.1568     -182453.49      195.58079      194.96605      852.15791    
     43300  -183467.3       1071.2858     -182396.02      195.56496      194.9538       852.5083     
     43400  -183416.23      1070.8086     -182345.42      195.55504      194.94494      852.8587     
     43500  -183368.02      1065.573      -182302.45      195.54114      194.93247      853.20909    
     43600  -183317.18      1061.0075     -182256.17      195.52987      194.9211       853.55948    
     43700  -183264.46      1066.6873     -182197.77      195.52028      194.91174      853.90988    
     43800  -183212.07      1077.6298     -182134.44      195.50314      194.89902      854.26027    
     43900  -183161.57      1074.5664     -182087         195.48926      194.88838      854.61066    
     44000  -183115.21      1071.4725     -182043.74      195.47552      194.87853      854.96106    
     44100  -183057.41      1062.1236     -181995.29      195.45696      194.8657       855.31145    
     44200  -183009.28      1067.6947     -181941.58      195.4437       194.85451      855.66185    
     44300  -182949.64      1072.3816     -181877.26      195.43078      194.84255      856.01224    
     44400  -182895.61      1076.1436     -181819.47      195.41362      194.82866      856.36263    
     44500  -182843.55      1066.5741     -181776.98      195.40139      194.81721      856.71303    
     44600  -182797.41      1065.1655     -181732.25      195.3891       194.80553      857.06342    
     44700  -182750.17      1067.235      -181682.94      195.37587      194.79489      857.41382    
     44800  -182695.16      1065.687      -181629.48      195.36429      194.78787      857.76421    
     44900  -182639.47      1073.3735     -181566.1       195.34889      194.7802       858.1146     
     45000  -182586.7       1076.7668     -181509.93      195.33358      194.77183      858.465      
     45100  -182545.4       1075.7539     -181469.65      195.32014      194.76339      858.81539    
     45200  -182489.39      1066.16       -181423.23      195.30461      194.75203      859.16579    
     45300  -182445.56      1073.399      -181372.16      195.28875      194.73994      859.51618    
     45400  -182388.21      1067.2435     -181320.97      195.2729       194.72858      859.86657    
     45500  -182331.71      1061.1771     -181270.54      195.25535      194.71576      860.21697    
     45600  -182282.53      1068.3815     -181214.15      195.23973      194.70376      860.56736    
     45700  -182229.08      1073.9177     -181155.16      195.22576      194.69244      860.91775    
     45800  -182177.23      1075.0029     -181102.23      195.21067      194.68013      861.26815    
     45900  -182125.52      1063.9814     -181061.54      195.19686      194.67015      861.61854    
     46000  -182072.55      1057.5632     -181014.99      195.18224      194.66086      861.96894    
     46100  -182022.27      1062.6894     -180959.58      195.16695      194.65152      862.31933    
     46200  -181971.72      1073.2656     -180898.45      195.15462      194.6438       862.66972    
     46300  -181913.52      1071.7148     -180841.8       195.14237      194.63555      863.02012    
     46400  -181856.72      1066.5667     -180790.15      195.12768      194.62568      863.37051    
     46500  -181804.73      1065.9946     -180738.73      195.11402      194.61658      863.72091    
     46600  -181755.44      1068.1059     -180687.34      195.10007      194.60601      864.0713     
     46700  -181710.64      1074.1733     -180636.47      195.08482      194.59369      864.42169    
     46800  -181650.7       1064.8508     -180585.85      195.07071      194.5815       864.77209    
     46900  -181605.82      1070.7337     -180535.09      195.05684      194.56834      865.12248    
     47000  -181546.09      1064.1444     -180481.95      195.0424       194.55477      865.47287    
     47100  -181489.13      1063.3645     -180425.77      195.02801      194.54273      865.82327    
     47200  -181438.64      1071.2304     -180367.41      195.01185      194.53034      866.17366    
     47300  -181384.78      1069.7701     -180315.01      194.99804      194.51873      866.52406    
     47400  -181340.57      1065.7849     -180274.78      194.9865       194.50808      866.87445    
     47500  -181295.65      1069.3546     -180226.29      194.97397      194.49716      867.22484    
     47600  -181237.79      1067.258      -180170.53      194.96354      194.48747      867.57524    
     47700  -181185.64      1075.4913     -180110.15      194.9524       194.47746      867.92563    
     47800  -181126.94      1082.5776     -180044.36      194.9401       194.46753      868.27603    
     47900  -181065.81      1077.7538     -179988.05      194.92786      194.45616      868.62642    
     48000  -181019.78      1070.2514     -179949.53      194.91609      194.44283      868.97681    
     48100  -180966.14      1065.075      -179901.07      194.90303      194.42811      869.32721    
     48200  -180926.48      1075.1592     -179851.32      194.88936      194.41323      869.6776     
     48300  -180873.37      1068.7036     -179804.67      194.87636      194.39873      870.028      
     48400  -180813.74      1057.9765     -179755.76      194.86298      194.38443      870.37839    
     48500  -180760.74      1062.2846     -179698.46      194.8506       194.37148      870.72878    
     48600  -180708.96      1076.9422     -179632.02      194.83784      194.35946      871.07918    
     48700  -180654.11      1076.51       -179577.6       194.82305      194.3475       871.42957    
     48800  -180596.14      1062.4035     -179533.73      194.81062      194.33712      871.77996    
     48900  -180551.33      1065.6661     -179485.67      194.79856      194.32646      872.13036    
     49000  -180499.16      1064.4404     -179434.72      194.78515      194.31497      872.48075    
     49100  -180444.33      1062.8535     -179381.48      194.77341      194.30456      872.83115    
     49200  -180388.7       1061.768      -179326.93      194.76126      194.29352      873.18154    
     49300  -180341.34      1067.058      -179274.28      194.74693      194.28139      873.53193    
     49400  -180282.66      1058.6897     -179223.97      194.73321      194.27024      873.88233    
     49500  -180237.37      1065.0197     -179172.35      194.71825      194.25879      874.23272    
     49600  -180188.01      1070.4576     -179117.55      194.70095      194.24591      874.58312    
     49700  -180127.55      1070.2445     -179057.31      194.68577      194.23426      874.93351    
     49800  -180073.82      1074.701      -178999.12      194.6704       194.22231      875.2839     
     49900  -180025.23      1071.343      -178953.89      194.65424      194.21035      875.6343     
     50000  -179971.16      1061.7367     -178909.42      194.64094      194.20025      875.98469    
     50100  -179918.26      1063.0531     -178855.21      194.62757      194.19003      876.33509    
     50200  -179866.05      1070.2944     -178795.75      194.61444      194.1801       876.68548    
     50300  -179802.03      1072.1839     -178729.84      194.60364      194.17129      877.03587    
     50400  -179753.03      1081.8996     -178671.13      194.5902       194.16151      877.38627    
     50500  -179705.39      1070.2403     -178635.15      194.57593      194.15278      877.73666    
     50600  -179655.4       1068.3864     -178587.01      194.56276      194.14448      878.08705    
     50700  -179596.58      1063.842      -178532.74      194.54723      194.13415      878.43745    
     50800  -179533.44      1061.4571     -178471.98      194.5326       194.12341      878.78784    
     50900  -179491.69      1081.5739     -178410.11      194.51877      194.11158      879.13824    
     51000  -179431.86      1071.4789     -178360.38      194.50278      194.09794      879.48863    
     51100  -179376.83      1057.4503     -178319.38      194.48949      194.08578      879.83902    
     51200  -179336         1070.1804     -178265.82      194.47708      194.07271      880.18942    
     51300  -179278.53      1070.2438     -178208.29      194.46458      194.06014      880.53981    
     51400  -179228.82      1079.4044     -178149.42      194.45332      194.04922      880.89021    
     51500  -179176.13      1076.9989     -178099.14      194.43958      194.03816      881.2406     
     51600  -179116.83      1060.0327     -178056.79      194.42518      194.02826      881.59099    
     51700  -179070.53      1066.535      -178004         194.41295      194.0199       881.94139    
     51800  -179010.92      1065.1303     -177945.79      194.39706      194.00881      882.29178    
     51900  -178952.36      1072.7895     -177879.57      194.38469      193.99867      882.64217    
     52000  -178897.42      1076.359      -177821.06      194.37242      193.98849      882.99257    
     52100  -178851.24      1069.7839     -177781.46      194.35543      193.9762       883.34296    
     52200  -178800.19      1069.2897     -177730.9       194.34206      193.96608      883.69336    
     52300  -178751.06      1068.8073     -177682.26      194.32781      193.9548       884.04375    
     52400  -178700.72      1067.5275     -177633.19      194.31181      193.94146      884.39414    
     52500  -178645.78      1065.1092     -177580.68      194.30023      193.93046      884.74454    
     52600  -178594.27      1064.6319     -177529.64      194.28646      193.91807      885.09493    
     52700  -178546.54      1065.812      -177480.72      194.27249      193.90551      885.44533    
     52800  -178492.1       1064.8816     -177427.21      194.26237      193.89502      885.79572    
     52900  -178433.75      1068.5116     -177365.24      194.24911      193.88315      886.14611    
     53000  -178372.77      1073.6318     -177299.13      194.23513      193.87257      886.49651    
     53100  -178321.31      1075.1438     -177246.16      194.22049      193.86468      886.8469     
     53200  -178264.76      1062.8401     -177201.92      194.20046      193.85535      887.1973     
     53300  -178218.46      1071.2614     -177147.2       194.18403      193.84766      887.54769    
     53400  -178153.48      1062.6507     -177090.83      194.16774      193.83867      887.89808    
     53500  -178107.48      1071.3338     -177036.15      194.14996      193.82736      888.24848    
     53600  -178060.56      1070.3753     -176990.19      194.13697      193.81679      888.59887    
     53700  -178006.18      1064.5857     -176941.59      194.12335      193.80446      888.94926    
     53800  -177947.67      1065.2475     -176882.42      194.11054      193.7917       889.29966    
     53900  -177891.6       1073.1191     -176818.49      194.10001      193.78003      889.65005    
     54000  -177836.05      1082.7132     -176753.34      194.08607      193.76818      890.00045    
     54100  -177778.51      1077.991      -176700.51      194.07172      193.75781      890.35084    
     54200  -177731.27      1072.0611     -176659.21      194.05599      193.74853      890.70123    
     54300  -177676.4       1064.925      -176611.47      194.0373       193.73869      891.05163    
     54400  -177624.67      1064.3622     -176560.31      194.02102      193.72973      891.40202    
     54500  -177570.83      1063.2379     -176507.59      194.0051       193.71883      891.75242    
     54600  -177521.49      1066.2458     -176455.24      193.99049      193.70669      892.10281    
     54700  -177466.62      1063.3524     -176403.26      193.97781      193.69441      892.4532     
     54800  -177411.98      1061.1228     -176350.86      193.96462      193.68073      892.8036     
     54900  -177361.24      1066.8621     -176294.37      193.9523       193.66741      893.15399    
     55000  -177301.08      1069.0795     -176232         193.93983      193.65529      893.50439    
     55100  -177245.99      1075.6392     -176170.35      193.92591      193.64409      893.85478    
     55200  -177190.57      1068.3829     -176122.19      193.91142      193.63347      894.20517    
     55300  -177141.86      1066.8919     -176074.97      193.89662      193.62276      894.55557    
     55400  -177089.67      1070.0459     -176019.62      193.88084      193.61163      894.90596    
     55500  -177031.5       1066.6555     -175964.85      193.86555      193.60094      895.25635    
     55600  -176982.08      1065.1711     -175916.9       193.85084      193.58901      895.60675    
     55700  -176929.28      1061.5121     -175867.77      193.83757      193.57565      895.95714    
     55800  -176871.28      1064.0038     -175807.27      193.82632      193.5624       896.30754    
     55900  -176807.48      1061.7667     -175745.72      193.81409      193.5487       896.65793    
     56000  -176764.51      1075.827      -175688.68      193.80213      193.53555      897.00832    
     56100  -176705.35      1071.9415     -175633.41      193.79039      193.52386      897.35872    
     56200  -176655.93      1074.1594     -175581.77      193.77592      193.51267      897.70911    
     56300  -176601.99      1069.6461     -175532.34      193.76239      193.50227      898.05951    
     56400  -176543.09      1063.6101     -175479.48      193.7483       193.49146      898.4099     
     56500  -176491.42      1066.702      -175424.72      193.73281      193.47927      898.76029    
     56600  -176442.78      1071.9332     -175370.85      193.71837      193.46679      899.11069    
     56700  -176390.78      1062.7184     -175328.06      193.70458      193.45423      899.46108    
     56800  -176327.8       1055.6307     -175272.17      193.68972      193.44179      899.81147    
     56900  -176273.21      1067.8836     -175205.33      193.67476      193.42993      900.16187    
     57000  -176223.38      1082.056      -175141.32      193.66084      193.41872      900.51226    
     57100  -176160.77      1072.6897     -175088.08      193.64692      193.40794      900.86266    
     57200  -176111.56      1073.3376     -175038.22      193.63277      193.39776      901.21305    
     57300  -176052.73      1069.7197     -174983.01      193.61895      193.38793      901.56344    
     57400  -175996.22      1065.8813     -174930.34      193.60466      193.37806      901.91384    
     57500  -175944.24      1064.8048     -174879.44      193.58914      193.36803      902.26423    
     57600  -175891.47      1067.5573     -174823.92      193.57322      193.35781      902.61463    
     57700  -175836.35      1072.399      -174763.95      193.55756      193.34769      902.96502    
     57800  -175772.64      1068.7575     -174703.88      193.53922      193.33699      903.31541    
     57900  -175722.67      1066.8983     -174655.77      193.52177      193.32717      903.66581    
     58000  -175668.88      1064.0407     -174604.84      193.50556      193.31732      904.0162     
     58100  -175605.99      1061.6752     -174544.31      193.48871      193.30622      904.3666     
     58200  -175550.61      1072.672      -174477.93      193.47448      193.29512      904.71699    
     58300  -175489.09      1073.7305     -174415.36      193.46077      193.28324      905.06738    
     58400  -175445.27      1075.5654     -174369.7       193.44688      193.27071      905.41778    
     58500  -175383.69      1066.8585     -174316.83      193.43414      193.25843      905.76817    
     58600  -175330.04      1067.8532     -174262.19      193.41972      193.24679      906.11856    
     58700  -175272.99      1064.3004     -174208.69      193.40352      193.23575      906.46896    
     58800  -175219.56      1064.8035     -174154.75      193.38881      193.22579      906.81935    
     58900  -175163.79      1063.7215     -174100.07      193.37402      193.21593      907.16975    
     59000  -175112.87      1071.3295     -174041.54      193.3587       193.20664      907.52014    
     59100  -175060.23      1075.1941     -173985.04      193.34344      193.19731      907.87053    
     59200  -174993.74      1057.9081     -173935.83      193.32906      193.18655      908.22093    
     59300  -174945.77      1067.0294     -173878.74      193.31463      193.17418      908.57132    
     59400  -174883.15      1065.4414     -173817.71      193.30072      193.16092      908.92172    
     59500  -174828.91      1070.0828     -173758.83      193.28558      193.14643      909.27211    
     59600  -174770.88      1063.6795     -173707.2       193.26999      193.13289      909.6225     
     59700  -174715.28      1062.7253     -173652.56      193.25459      193.12111      909.9729     
     59800  -174666.95      1074.7434     -173592.21      193.23733      193.11037      910.32329    
     59900  -174598.03      1066.6344     -173531.39      193.22087      193.10072      910.67369    
     60000  -174540.07      1058.9064     -173481.16      193.20638      193.0913       911.02408    
     60100  -174492.94      1064.9381     -173428         193.19134      193.08068      911.37447    
     60200  -174432.57      1068.6856     -173363.88      193.17657      193.07012      911.72487    
     60300  -174362.96      1064.0711     -173298.88      193.16264      193.06022      912.07526    
     60400  -174312.5       1067.7437     -173244.75      193.14831      193.05027      912.42565    
     60500  -174263.57      1071.7541     -173191.81      193.13353      193.04006      912.77605    
     60600  -174197.6       1066.7869     -173130.81      193.11766      193.02993      913.12644    
     60700  -174135.46      1066.572      -173068.89      193.10205      193.01988      913.47684    
     60800  -174080.99      1063.7882     -173017.2       193.08672      193.00908      913.82723    
     60900  -174033.79      1071.9985     -172961.8       193.07014      192.99693      914.17762    
     61000  -173971.07      1071.9641     -172899.11      193.05435      192.985        914.52802    
     61100  -173909.71      1069.9067     -172839.8       193.03797      192.97243      914.87841    
     61200  -173852.48      1063.7707     -172788.71      193.02258      192.95989      915.22881    
     61300  -173801.98      1074.1362     -172727.85      193.00706      192.94686      915.5792     
     61400  -173737.16      1070.7568     -172666.41      192.99206      192.93428      915.92959    
     61500  -173676.34      1067.1121     -172609.23      192.97849      192.9231       916.27999    
     61600  -173620.57      1066.4807     -172554.09      192.96379      192.91184      916.63038    
     61700  -173564.01      1073.0764     -172490.94      192.94994      192.90146      916.98077    
     61800  -173497.13      1069.3081     -172427.82      192.93601      192.89176      917.33117    
     61900  -173440.16      1070.1296     -172370.03      192.91913      192.88055      917.68156    
     62000  -173379.39      1068.1604     -172311.23      192.90448      192.87054      918.03196    
     62100  -173319.39      1069.9506     -172249.44      192.88863      192.85826      918.38235    
     62200  -173258.05      1071.4291     -172186.62      192.87424      192.84483      918.73274    
     62300  -173204.81      1074.6546     -172130.16      192.86102      192.83086      919.08314    
     62400  -173148.69      1077.463      -172071.23      192.84555      192.81607      919.43353    
     62500  -173078.65      1066.9514     -172011.7       192.83226      192.80296      919.78393    
     62600  -173024.32      1070.3783     -171953.94      192.81682      192.78891      920.13432    
     62700  -172964.13      1071.1362     -171892.99      192.80214      192.77615      920.48471    
     62800  -172904.94      1071.0172     -171833.92      192.78805      192.76482      920.83511    
     62900  -172836.67      1064.4426     -171772.23      192.77142      192.7524       921.1855     
     63000  -172781.05      1070.6279     -171710.42      192.758        192.74154      921.5359     
     63100  -172718.15      1067.0479     -171651.1       192.74292      192.72984      921.88629    
     63200  -172657.77      1068.2687     -171589.5       192.72801      192.71694      922.23668    
     63300  -172596.36      1068.9618     -171527.4       192.716        192.70425      922.58708    
     63400  -172541.89      1074.6559     -171467.24      192.70076      192.68931      922.93747    
     63500  -172475.16      1071.3327     -171403.83      192.6861       192.67596      923.28786    
     63600  -172419.19      1075.9229     -171343.26      192.67053      192.66343      923.63826    
     63700  -172354.32      1072.2736     -171282.05      192.6531       192.6508       923.98865    
     63800  -172293.72      1074.1796     -171219.54      192.63773      192.64043      924.33905    
     63900  -172232.73      1075.4714     -171157.26      192.6206       192.62953      924.68944    
     64000  -172164.96      1071.4719     -171093.49      192.60584      192.61874      925.03983    
     64100  -172104.29      1074.0932     -171030.2       192.59119      192.60713      925.39023    
     64200  -172038.67      1073.6999     -170964.97      192.57567      192.59517      925.74062    
     64300  -171975.28      1074.4129     -170900.86      192.56153      192.58328      926.09102    
     64400  -171912.07      1075.7337     -170836.33      192.54728      192.56978      926.44141    
     64500  -171848.13      1075.8128     -170772.32      192.53421      192.55661      926.7918     
     64600  -171781         1072.2621     -170708.74      192.51747      192.54331      927.1422     
     64700  -171712.99      1067.9604     -170645.03      192.50097      192.53155      927.49259    
     64800  -171655.73      1075.9827     -170579.75      192.4849       192.52009      927.84298    
     64900  -171581.95      1068.9078     -170513.05      192.46729      192.50835      928.19338    
     65000  -171517.74      1071.4545     -170446.28      192.45204      192.49841      928.54377    
     65100  -171451.47      1071.1362     -170380.33      192.4359       192.48724      928.89417    
     65200  -171389.04      1074.1631     -170314.88      192.42049      192.47537      929.24456    
     65300  -171322.36      1073.1657     -170249.2       192.40606      192.46351      929.59495    
     65400  -171255.29      1070.7354     -170184.56      192.39042      192.45129      929.94535    
     65500  -171185.96      1066.731      -170119.23      192.37584      192.4396       930.29574    
     65600  -171127.05      1074.161      -170052.89      192.3613       192.42667      930.64614    
     65700  -171060.94      1073.8997     -169987.04      192.34716      192.41385      930.99653    
     65800  -170997.44      1076.5186     -169920.92      192.33173      192.40105      931.34692    
     65900  -170924.27      1071.2168     -169853.06      192.31477      192.38796      931.69732    
     66000  -170859.83      1074.9579     -169784.87      192.29828      192.37584      932.04771    
     66100  -170791.11      1074.6578     -169716.45      192.28043      192.36368      932.39811    
     66200  -170716.96      1070.3099     -169646.65      192.26432      192.3525       932.7485     
     66300  -170647.5       1070.216      -169577.28      192.24889      192.34097      933.09889    
     66400  -170588.41      1079.9579     -169508.45      192.23448      192.32951      933.44929    
     66500  -170507.33      1067.966      -169439.36      192.21979      192.31728      933.79968    
     66600  -170444.65      1073.8012     -169370.85      192.20509      192.30463      934.15007    
     66700  -170373.46      1073.6708     -169299.78      192.19051      192.29207      934.50047    
     66800  -170299.6       1070.0965     -169229.51      192.17414      192.27897      934.85086    
     66900  -170240.12      1081.6603     -169158.46      192.15788      192.26696      935.20126    
     67000  -170165.23      1075.6094     -169089.62      192.14041      192.25521      935.55165    
     67100  -170093.62      1075.3572     -169018.26      192.12307      192.24377      935.90204    
     67200  -170022.09      1073.0937     -168949         192.10678      192.23267      936.25244    
     67300  -169955.53      1078.348      -168877.19      192.08959      192.22011      936.60283    
     67400  -169882.9       1077.1323     -168805.77      192.07478      192.20738      936.95323    
     67500  -169797.5       1064.3225     -168733.18      192.06053      192.19365      937.30362    
     67600  -169728.61      1070.5853     -168658.02      192.04568      192.17968      937.65401    
     67700  -169660.5       1077.7564     -168582.74      192.03117      192.16703      938.00441    
     67800  -169586.01      1078.2141     -168507.8       192.01525      192.15543      938.3548     
     67900  -169514.55      1078.0562     -168436.49      191.99797      192.14459      938.7052     
     68000  -169438.63      1074.5477     -168364.08      191.9797       192.13434      939.05559    
     68100  -169365.25      1074.8938     -168290.36      191.96164      192.12337      939.40598    
     68200  -169289.88      1074.7553     -168215.13      191.94499      192.11167      939.75638    
     68300  -169220.88      1079.6302     -168141.24      191.92922      192.099        940.10677    
     68400  -169136.74      1072.2626     -168064.48      191.91447      192.08623      940.45716    
     68500  -169063.72      1075.8214     -167987.89      191.89987      192.0735       940.80756    
     68600  -168986.01      1073.7165     -167912.29      191.8852       192.06073      941.15795    
     68700  -168912.78      1075.6588     -167837.13      191.87012      192.04745      941.50835    
     68800  -168834.89      1074.3909     -167760.5       191.85424      192.03364      941.85874    
     68900  -168763         1078.7998     -167684.2       191.83822      192.02006      942.20913    
     69000  -168689.29      1082.4185     -167606.87      191.82051      192.00645      942.55953    
     69100  -168609.64      1078.578      -167531.06      191.8024       191.99337      942.90992    
     69200  -168534.91      1080.242      -167454.66      191.7866       191.98147      943.26032    
     69300  -168447.96      1070.267      -167377.69      191.77084      191.96914      943.61071    
     69400  -168375.55      1076.1148     -167299.43      191.75612      191.95739      943.9611     
     69500  -168306.34      1085.2323     -167221.11      191.7415       191.94564      944.3115     
     69600  -168221.89      1082.3805     -167139.51      191.72612      191.93342      944.66189    
     69700  -168130.57      1071.0175     -167059.55      191.71059      191.92087      945.01228    
     69800  -168064.23      1085.6112     -166978.62      191.69462      191.90734      945.36268    
     69900  -167977.07      1080.1279     -166896.95      191.67927      191.89338      945.71307    
     70000  -167900.87      1082.298      -166818.57      191.66414      191.8792       946.06347    
     70100  -167826.17      1087.9484     -166738.22      191.64888      191.8655       946.41386    
     70200  -167742.27      1083.1187     -166659.15      191.63388      191.85244      946.76425    
     70300  -167663.98      1087.074      -166576.9       191.61836      191.83942      947.11465    
     70400  -167574.84      1077.1435     -166497.7       191.60252      191.82669      947.46504    
     70500  -167500.23      1083.335      -166416.9       191.58581      191.81422      947.81544    
     70600  -167425.55      1092.2633     -166333.29      191.5689       191.8026       948.16583    
     70700  -167323.3       1076.6577     -166246.64      191.55173      191.79153      948.51622    
     70800  -167254.36      1091.9551     -166162.41      191.53475      191.77994      948.86662    
     70900  -167166.82      1087.988      -166078.83      191.51998      191.76893      949.21701    
     71000  -167078.97      1089.2514     -165989.72      191.50334      191.75585      949.56741    
     71100  -166996.9       1091.5051     -165905.4       191.48882      191.74251      949.9178     
     71200  -166903.87      1082.8287     -165821.04      191.47361      191.72901      950.26819    
     71300  -166831.71      1095.0476     -165736.66      191.45631      191.71591      950.61859    
     71400  -166737.59      1085.7955     -165651.8       191.44014      191.70506      950.96898    
     71500  -166660.65      1091.7789     -165568.87      191.42068      191.69328      951.31937    
     71600  -166568.75      1086.6215     -165482.13      191.40328      191.68237      951.66977    
     71700  -166482.72      1089.6644     -165393.05      191.38609      191.67021      952.02016    
     71800  -166405.56      1100.512      -165305.05      191.36973      191.65711      952.37056    
     71900  -166315.44      1099.7996     -165215.64      191.35553      191.64495      952.72095    
     72000  -166221.79      1095.8468     -165125.94      191.33927      191.63212      953.07134    
     72100  -166143.74      1102.3441     -165041.4       191.32366      191.62052      953.42174    
     72200  -166049.52      1095.9451     -164953.58      191.30625      191.6089       953.77213    
     72300  -165955.04      1095.4323     -164859.61      191.28689      191.59752      954.12253    
     72400  -165876.73      1108.1644     -164768.56      191.2689       191.58662      954.47292    
     72500  -165782         1103.1973     -164678.8       191.25154      191.5742       954.82331    
     72600  -165701.14      1114.1617     -164586.98      191.23713      191.56155      955.17371    
     72700  -165600.96      1109.1956     -164491.77      191.22212      191.54748      955.5241     
[...]
     81600  -195705.97      1158.6527     -194547.31      191.86894      191.35851      986.70916    
     81700  -195922.6       1146.8579     -194775.74      191.88833      191.36306      987.05955    
     81800  -196129.04      1136.7732     -194992.27      191.90737      191.36813      987.40994    
     81900  -196326.3       1128.4104     -195197.89      191.92612      191.37422      987.76034    
     82000  -196515.63      1121.6524     -195393.98      191.94282      191.38057      988.11073    
     82100  -196694.13      1112.9496     -195581.18      191.959        191.38729      988.46113    
     82200  -196859.76      1103.1267     -195756.63      191.97609      191.39434      988.81152    
     82300  -197016.96      1097.4187     -195919.55      191.99475      191.40104      989.16191    
     82400  -197164.46      1091.8284     -196072.63      192.01451      191.40731      989.51231    
     82500  -197300.31      1085.2962     -196215.02      192.03529      191.41301      989.8627     
     82600  -197426.17      1080.0586     -196346.11      192.05696      191.4189       990.21309    
     82700  -197538.52      1073.8885     -196464.63      192.07896      191.42583      990.56349    
     82800  -197640.71      1070.9038     -196569.81      192.1007       191.43409      990.91388    
     82900  -197727.36      1064.4971     -196662.87      192.1218       191.44232      991.26428    
     83000  -197801.24      1062.6012     -196738.64      192.14159      191.45021      991.61467    
     83100  -197861.97      1063.411      -196798.56      192.16182      191.45891      991.96506    
     83200  -197913.07      1064.9099     -196848.16      192.18268      191.46725      992.31546    
     83300  -197944.72      1055.9504     -196888.77      192.20555      191.47513      992.66585    
     83400  -197966.8       1057.5513     -196909.25      192.23003      191.48336      993.01625    
     83500  -197979.89      1067.2398     -196912.65      192.2538       191.49168      993.36664    
     83600  -197982.21      1067.9923     -196914.21      192.27552      191.50008      993.71703    
     83700  -197970.13      1055.6645     -196914.47      192.29606      191.50927      994.06743    
     83800  -197943.32      1050.852      -196892.47      192.31478      191.5189       994.41782    
     83900  -197901.1       1059.5628     -196841.53      192.33044      191.52853      994.76822    
     84000  -197845.89      1066.0494     -196779.84      192.34494      191.53778      995.11861    
     84100  -197775.66      1058.2834     -196717.37      192.35979      191.54771      995.469      
     84200  -197699.55      1054.8462     -196644.7       192.37256      191.55666      995.8194     
     84300  -197610.5       1053.0498     -196557.45      192.38045      191.56543      996.16979    
     84400  -197523.7       1063.85       -196459.85      192.38695      191.5773       996.52018    
     84500  -197445.04      1075.3764     -196369.66      192.3911       191.59355      996.87058    
     84600  -197385.57      1082.4202     -196303.15      192.38562      191.6118       997.22097    
     84700  -197356.11      1088.2157     -196267.89      192.37264      191.63301      997.57137    
     84800  -197342.25      1071.1868     -196271.07      192.34746      191.65422      997.92176    
     84900  -197320.63      1042.2166     -196278.42      192.32527      191.67791      998.27215    
     85000  -197309.1       1065.46       -196243.64      192.31492      191.70291      998.62255    
     85100  -197281.83      1078.6571     -196203.18      192.31603      191.72946      998.97294    
     85200  -197243.71      1064.2324     -196179.47      192.32717      191.74932      999.32334    
     85300  -197178.09      1034.4751     -196143.61      192.34034      191.76319      999.67373    
     85400  -197121.29      1054.9451     -196066.35      192.34786      191.77081      1000.0241    
     85500  -197071.36      1092.0574     -195979.3       192.35835      191.77628      1000.3745    
     85600  -197037.26      1096.8186     -195940.44      192.37521      191.78211      1000.7249    
     85700  -197016.18      1061.6012     -195954.58      192.39155      191.78272      1001.0753    
     85800  -196993.46      1038.1057     -195955.35      192.41675      191.78361      1001.4257    
     85900  -196968.49      1061.2971     -195907.2       192.44333      191.79116      1001.7761    
     86000  -196947.29      1095.1296     -195852.16      192.46762      191.79946      1002.1265    
     86100  -196929.87      1082.3428     -195847.52      192.48965      191.80969      1002.4769    
     86200  -196914.68      1045.9313     -195868.75      192.50397      191.82244      1002.8273    
     86300  -196918.72      1060.4257     -195858.3       192.5187       191.83777      1003.1777    
     86400  -196898.58      1070.8558     -195827.72      192.5383       191.85613      1003.5281    
     86500  -196891.09      1087.6961     -195803.39      192.55562      191.87974      1003.8785    
     86600  -196897.43      1082.5293     -195814.9       192.56992      191.90465      1004.2289    
     86700  -196899.12      1053.2551     -195845.87      192.58502      191.93058      1004.5792    
     86800  -196906.44      1052.1862     -195854.25      192.59715      191.9536       1004.9296    
     86900  -196892.3       1061.5545     -195830.74      192.61648      191.97578      1005.28      
     87000  -196887.06      1084.2062     -195802.85      192.63264      191.99063      1005.6304    
     87100  -196873.18      1069.5192     -195803.66      192.6556       192.01088      1005.9808    
     87200  -196880.29      1066.2326     -195814.06      192.6909       192.03274      1006.3312    
     87300  -196863.18      1045.539      -195817.64      192.71883      192.05366      1006.6816    
     87400  -196864.2       1069.2        -195795         192.74109      192.07322      1007.032     
     87500  -196861.83      1087.8209     -195774.01      192.76496      192.09347      1007.3824    
     87600  -196843.21      1068.1923     -195775.02      192.78914      192.12157      1007.7328    
     87700  -196841.58      1059.1286     -195782.45      192.81201      192.15093      1008.0832    
     87800  -196844.09      1061.1715     -195782.92      192.8365       192.17913      1008.4336    
     87900  -196844.19      1069.7055     -195774.48      192.85908      192.20515      1008.784     
     88000  -196828.02      1061.2618     -195766.76      192.8783       192.22464      1009.1344    
     88100  -196829.88      1073.6181     -195756.26      192.90388      192.25033      1009.4848    
     88200  -196827.46      1072.0573     -195755.4       192.93161      192.27175      1009.8352    
     88300  -196828.55      1060.7444     -195767.81      192.96512      192.29477      1010.1855    
     88400  -196830.46      1062.8272     -195767.63      192.99728      192.31862      1010.5359    
     88500  -196802.76      1051.6258     -195751.13      193.02734      192.33741      1010.8863    
     88600  -196790.96      1082.9884     -195707.97      193.06254      192.36055      1011.2367    
     88700  -196771.44      1110.6035     -195660.84      193.09764      192.38801      1011.5871    
     88800  -196776.12      1069.5668     -195706.55      193.13401      192.41516      1011.9375    
     88900  -196805.9       1030.71       -195775.19      193.17468      192.44615      1012.2879    
     89000  -196816.82      1047.7816     -195769.04      193.21384      192.47954      1012.6383    
     89100  -196813.8       1090.4275     -195723.37      193.25421      192.51491      1012.9887    
     89200  -196808.21      1078.1974     -195730.01      193.29373      192.55595      1013.3391    
     89300  -196822.07      1060.0048     -195762.07      193.32889      192.59555      1013.6895    
     89400  -196828.75      1082.1591     -195746.59      193.36513      192.63358      1014.0399    
     89500  -196814.9       1061.6233     -195753.28      193.39936      192.67413      1014.3903    
     89600  -196823.38      1054.3233     -195769.06      193.42591      192.70946      1014.7407    
     89700  -196817.32      1061.3047     -195756.01      193.45867      192.7469       1015.0911    
     89800  -196814.89      1082.0729     -195732.82      193.49146      192.78269      1015.4415    
     89900  -196813.5       1085.2092     -195728.29      193.52026      192.81805      1015.7918    
     90000  -196813.24      1063.4492     -195749.79      193.54578      192.85292      1016.1422    
     90100  -196816.17      1051.0778     -195765.09      193.57138      192.88644      1016.4926    
     90200  -196818.2       1067.9401     -195750.26      193.5988       192.91765      1016.843     
     90300  -196819.99      1084.4372     -195735.56      193.62841      192.94877      1017.1934    
     90400  -196813.61      1064.808      -195748.8       193.65377      192.97504      1017.5438    
     90500  -196820.3       1054.8935     -195765.41      193.67729      193.00589      1017.8942    
     90600  -196816.88      1054.6352     -195762.24      193.70071      193.03824      1018.2446    
     90700  -196813.39      1073.3244     -195740.06      193.72339      193.06965      1018.595     
     90800  -196807.1       1080.7525     -195726.35      193.74766      193.10511      1018.9454    
     90900  -196819.1       1077.9815     -195741.12      193.76591      193.14348      1019.2958    
     91000  -196827.26      1056.436      -195770.82      193.78006      193.18202      1019.6462    
     91100  -196828.93      1050.3023     -195778.62      193.79624      193.22447      1019.9966    
     91200  -196821.65      1069.7891     -195751.86      193.81121      193.26418      1020.347     
     91300  -196814.78      1089.6033     -195725.18      193.82521      193.30563      1020.6974    
     91400  -196805.54      1076.2954     -195729.25      193.84033      193.3483       1021.0478    
     91500  -196802.71      1091.0283     -195711.69      193.85137      193.38818      1021.3981    
     91600  -196816.67      1060.1963     -195756.47      193.8639       193.42893      1021.7485    
     91700  -196828.95      1049.4042     -195779.55      193.8745       193.46572      1022.0989    
     91800  -196823.2       1060.1082     -195763.09      193.88501      193.50056      1022.4493    
     91900  -196815.07      1086.9019     -195728.17      193.89515      193.53713      1022.7997    
     92000  -196812.4       1080.039      -195732.36      193.90313      193.56881      1023.1501    
     92100  -196807.48      1050.84       -195756.64      193.91514      193.59709      1023.5005    
     92200  -196811.1       1051.0182     -195760.09      193.92733      193.62336      1023.8509    
     92300  -196794         1060.2681     -195733.73      193.93725      193.64729      1024.2013    
     92400  -196790.03      1088.3285     -195701.7       193.94819      193.66796      1024.5517    
     92500  -196797.9       1088.1767     -195709.72      193.95742      193.68299      1024.9021    
     92600  -196799.76      1050.8279     -195748.94      193.96423      193.69513      1025.2525    
     92700  -196809.62      1045.2301     -195764.39      193.97239      193.70603      1025.6029    
     92800  -196788.77      1060.1553     -195728.61      193.97938      193.71239      1025.9533    
     92900  -196759.79      1085.4632     -195674.33      193.98498      193.71492      1026.3037    
     93000  -196759.62      1098.7216     -195660.9       193.98933      193.71739      1026.6541    
     93100  -196752.76      1055.9735     -195696.78      193.9867       193.72221      1027.0045    
     93200  -196774.83      1052.0514     -195722.78      193.97866      193.72961      1027.3548    
     93300  -196772.27      1056.8981     -195715.37      193.97044      193.73982      1027.7052    
     93400  -196756.97      1072.0062     -195684.97      193.96061      193.74873      1028.0556    
     93500  -196753.06      1086.1234     -195666.94      193.94828      193.75892      1028.406     
     93600  -196760.57      1080.4595     -195680.11      193.93458      193.76789      1028.7564    
     93700  -196781.46      1061.946      -195719.52      193.92161      193.77102      1029.1068    
     93800  -196778.53      1036.5988     -195741.93      193.90796      193.77485      1029.4572    
     93900  -196769.89      1051.4932     -195718.4       193.89627      193.78571      1029.8076    
     94000  -196757.92      1087.5521     -195670.37      193.88659      193.7954       1030.158     
     94100  -196753.15      1099.9718     -195653.18      193.87684      193.80623      1030.5084    
     94200  -196757.48      1068.5644     -195688.92      193.86772      193.82129      1030.8588    
     94300  -196768.49      1041.6112     -195726.88      193.85484      193.82827      1031.2092    
     94400  -196772.57      1048.2985     -195724.27      193.84594      193.83789      1031.5596    
     94500  -196752.97      1067.0085     -195685.96      193.83983      193.85081      1031.91      
     94600  -196743.47      1093.7975     -195649.67      193.83363      193.85739      1032.2604    
     94700  -196743.61      1082.1612     -195661.45      193.83658      193.86877      1032.6108    
     94800  -196752.12      1053.0831     -195699.04      193.84098      193.88274      1032.9611    
     94900  -196766.69      1037.6619     -195729.03      193.84114      193.89894      1033.3115    
     95000  -196765.68      1055.8401     -195709.84      193.84218      193.9189       1033.6619    
     95100  -196747.14      1080.5047     -195666.64      193.84452      193.93704      1034.0123    
     95200  -196733.37      1086.438      -195646.93      193.85267      193.95875      1034.3627    
     95300  -196750.25      1078.0038     -195672.25      193.86434      193.98391      1034.7131    
     95400  -196769.83      1051.998      -195717.83      193.87137      194.00667      1035.0635    
     95500  -196773.98      1041.6618     -195732.32      193.88271      194.0366       1035.4139    
     95600  -196761.69      1060.0999     -195701.59      193.89569      194.07436      1035.7643    
     95700  -196749.4       1086.593      -195662.81      193.90835      194.11549      1036.1147    
     95800  -196759.22      1094.3486     -195664.88      193.92033      194.16077      1036.4651    
     95900  -196771.58      1060.8121     -195710.77      193.92954      194.20708      1036.8155    
     96000  -196787.56      1043.8313     -195743.73      193.93582      194.25221      1037.1659    
     96100  -196776.2       1041.5605     -195734.64      193.94285      194.30072      1037.5163    
     96200  -196778.98      1082.2642     -195696.72      193.94655      194.35046      1037.8667    
     96300  -196778.47      1094.7654     -195683.7       193.95192      194.40009      1038.2171    
     96400  -196786.75      1074.2404     -195712.51      193.96257      194.45431      1038.5674    
     96500  -196795.77      1053.9167     -195741.86      193.97257      194.51238      1038.9178    
     96600  -196791.47      1050.5402     -195740.93      193.9839       194.57047      1039.2682    
     96700  -196777.74      1068.5051     -195709.23      193.99595      194.62866      1039.6186    
     96800  -196780.36      1106.8297     -195673.53      194.00542      194.6897       1039.969     
     96900  -196785.43      1081.4163     -195704.01      194.01192      194.75498      1040.3194    
     97000  -196793.17      1047.6976     -195745.47      194.01596      194.81848      1040.6698    
     97100  -196797.87      1046.8388     -195751.03      194.02039      194.87839      1041.0202    
     97200  -196783.75      1061.642      -195722.11      194.02626      194.94177      1041.3706    
     97300  -196770.36      1082.9774     -195687.38      194.03249      195.0074       1041.721     
     97400  -196767.94      1082.3942     -195685.55      194.03437      195.07105      1042.0714    
     97500  -196782.87      1065.8269     -195717.04      194.0352       195.13519      1042.4218    
     97600  -196787.26      1062.9095     -195724.35      194.03445      195.19984      1042.7722    
     97700  -196783.28      1053.892      -195729.39      194.03345      195.26364      1043.1226    
     97800  -196766.11      1071.4304     -195694.68      194.03412      195.32827      1043.473     
     97900  -196759.54      1077.649      -195681.89      194.03578      195.39507      1043.8234    
     98000  -196767.42      1075.1799     -195692.24      194.03861      195.46314      1044.1738    
     98100  -196769.81      1064.588      -195705.22      194.04056      195.5309       1044.5241    
     98200  -196782.21      1056.3334     -195725.88      194.03923      195.59214      1044.8745    
     98300  -196787.65      1056.6728     -195730.98      194.04323      195.64605      1045.2249    
     98400  -196778.35      1063.8492     -195714.5       194.04971      195.69645      1045.5753    
     98500  -196778.6       1081.3418     -195697.25      194.05504      195.74631      1045.9257    
     98600  -196778.43      1074.0947     -195704.33      194.06251      195.79665      1046.2761    
     98700  -196785.32      1060.4399     -195724.88      194.06919      195.8525       1046.6265    
     98800  -196787.31      1054.5516     -195732.76      194.07567      195.91478      1046.9769    
     98900  -196775.06      1061.136      -195713.92      194.08165      195.97597      1047.3273    
     99000  -196761.33      1078.0078     -195683.32      194.08687      196.03676      1047.6777    
     99100  -196754.87      1083.922      -195670.95      194.09322      196.09681      1048.0281    
     99200  -196758.51      1071.9524     -195686.56      194.09853      196.1541       1048.3785    
     99300  -196770.31      1057.9657     -195712.34      194.10458      196.21472      1048.7289    
     99400  -196766.97      1045.8173     -195721.15      194.11158      196.27621      1049.0793    
     99500  -196765.99      1064.9568     -195701.03      194.11948      196.34157      1049.4297    
     99600  -196750.46      1080.7307     -195669.73      194.13065      196.41086      1049.7801    
     99700  -196745.44      1080.6082     -195664.83      194.14282      196.48054      1050.1304    
     99800  -196755.75      1067.5028     -195688.25      194.15301      196.54617      1050.4808    
     99900  -196761.75      1051.303      -195710.44      194.16224      196.60904      1050.8312    
    100000  -196763.36      1059.9921     -195703.37      194.17249      196.6711       1051.1816    
Loop time of 27342.7 on 16 procs for 100000 steps with 27540 atoms

Performance: 0.316 ns/day, 75.952 hours/ns, 3.657 timesteps/s, 100.722 katom-step/s
48.3% CPU use with 16 MPI tasks x 1 OpenMP threads

MPI task timing breakdown:
Section |  min time  |  avg time  |  max time  |%varavg| %total
---------------------------------------------------------------
Pair    | 3616.7     | 5192.8     | 6996.5     |1592.6 | 18.99
Neigh   | 55.573     | 78.785     | 104.21     | 181.0 |  0.29
Comm    | 3160.8     | 5011       | 7194.3     |1731.8 | 18.33
Output  | 63.428     | 66.206     | 69.444     |  21.1 |  0.24
Modify  | 14475      | 15155      | 15533      | 239.8 | 55.43
Other   |            | 1839       |            |       |  6.73

Nlocal:        1721.25 ave        5688 max         181 min
Histogram: 4 5 0 2 2 2 0 0 0 1
Nghost:        3848.81 ave        6668 max        1246 min
Histogram: 4 2 2 0 1 0 1 1 0 5
Neighs:              0 ave           0 max           0 min
Histogram: 16 0 0 0 0 0 0 0 0 0

Total # of neighbors = 0
Ave neighs/atom = 0
Neighbor list builds = 1078
Dangerous builds = 0
Total wall time: 7:35:44
