LAMMPS data file via write_data, version 2 Aug 2023, timestep = 0, units = metal

11340 atoms
3 atom types

-100 100 xlo xhi
-100 100 ylo yhi
-2.1416495 286.4180135 zlo zhi

Masses

1 12.0107
2 12.0107
3 12.0107

Atoms # atomic

9 1 -1.048082 -9.971834 0 0 0 0
10 1 -2.425693 -9.728924 0 0 0 0
11 1 -5.013381 -8.68343 0 0 0 0
12 1 -6.173091 -7.901196 0 0 0 0
13 1 -8.11182 -5.893582 0 0 0 0
14 1 -8.853105 -4.707279 0 0 0 0
15 1 -9.807653 -2.084681 0 0 0 0
16 1 -10.002337 -0.699432 0 0 0 0
38 1 -0.349929 -10.020653 1.212436 0 0 0
39 1 -3.09844 -9.536017 1.212436 0 0 0
40 1 -4.395443 -9.011993 1.212436 0 0 0
41 1 -6.709213 -7.451336 1.212436 0 0 0
42 1 -7.680945 -6.445078 1.212436 0 0 0
43 1 -9.159902 -4.078251 1.212436 0 0 0
44 1 -9.638342 -2.76375 1.212436 0 0 0
67 1 -1.048082 -9.971834 2.424871 0 0 0
68 1 -2.425693 -9.728924 2.424871 0 0 0
69 1 -5.013381 -8.68343 2.424871 0 0 0
70 1 -6.173091 -7.901196 2.424871 0 0 0
71 1 -8.11182 -5.893582 2.424871 0 0 0
72 1 -8.853105 -4.707279 2.424871 0 0 0
73 1 -9.807653 -2.084681 2.424871 0 0 0
74 1 -10.002337 -0.699432 2.424871 0 0 0
96 1 -0.349929 -10.020653 3.637307 0 0 0
97 1 -3.09844 -9.536017 3.637307 0 0 0
98 1 -4.395443 -9.011993 3.637307 0 0 0
99 1 -6.709213 -7.451336 3.637307 0 0 0
100 1 -7.680945 -6.445078 3.637307 0 0 0
101 1 -9.159902 -4.078251 3.637307 0 0 0
102 1 -9.638342 -2.76375 3.637307 0 0 0
125 1 -1.048082 -9.971834 4.849742 0 0 0
126 1 -2.425693 -9.728924 4.849742 0 0 0
127 1 -5.013381 -8.68343 4.849742 0 0 0
128 1 -6.173091 -7.901196 4.849742 0 0 0
129 1 -8.11182 -5.893582 4.849742 0 0 0
130 1 -8.853105 -4.707279 4.849742 0 0 0
131 1 -9.807653 -2.084681 4.849742 0 0 0
132 1 -10.002337 -0.699432 4.849742 0 0 0
154 1 -0.349929 -10.020653 6.062178 0 0 0
155 1 -3.09844 -9.536017 6.062178 0 0 0
156 1 -4.395443 -9.011993 6.062178 0 0 0
157 1 -6.709213 -7.451336 6.062178 0 0 0
158 1 -7.680945 -6.445078 6.062178 0 0 0
159 1 -9.159902 -4.078251 6.062178 0 0 0
160 1 -9.638342 -2.76375 6.062178 0 0 0
183 1 -1.048082 -9.971834 7.274613 0 0 0
184 1 -2.425693 -9.728924 7.274613 0 0 0
185 1 -5.013381 -8.68343 7.274613 0 0 0
186 1 -6.173091 -7.901196 7.274613 0 0 0
187 1 -8.11182 -5.893582 7.274613 0 0 0
188 1 -8.853105 -4.707279 7.274613 0 0 0
189 1 -9.807653 -2.084681 7.274613 0 0 0
190 1 -10.002337 -0.699432 7.274613 0 0 0
212 1 -0.349929 -10.020653 8.487049 0 0 0
213 1 -3.09844 -9.536017 8.487049 0 0 0
214 1 -4.395443 -9.011993 8.487049 0 0 0
215 1 -6.709213 -7.451336 8.487049 0 0 0
216 1 -7.680945 -6.445078 8.487049 0 0 0
217 1 -9.159902 -4.078251 8.487049 0 0 0
218 1 -9.638342 -2.76375 8.487049 0 0 0
241 1 -1.048082 -9.971834 9.699485 0 0 0
242 1 -2.425693 -9.728924 9.699485 0 0 0
243 1 -5.013381 -8.68343 9.699485 0 0 0
244 1 -6.173091 -7.901196 9.699485 0 0 0
245 1 -8.11182 -5.893582 9.699485 0 0 0
246 1 -8.853105 -4.707279 9.699485 0 0 0
247 1 -9.807653 -2.084681 9.699485 0 0 0
248 1 -10.002337 -0.699432 9.699485 0 0 0
271 1 -3.09844 -9.536017 10.91192 0 0 0
272 1 -4.395443 -9.011993 10.91192 0 0 0
273 1 -6.709213 -7.451336 10.91192 0 0 0
274 1 -7.680945 -6.445078 10.91192 0 0 0
275 1 -9.159902 -4.078251 10.91192 0 0 0
276 1 -9.638342 -2.76375 10.91192 0 0 0
300 1 -0.349929 -10.020653 10.91192 0 0 0
301 1 -5.013381 -8.68343 12.124356 0 0 0
302 1 -6.173091 -7.901196 12.124356 0 0 0
303 1 -8.11182 -5.893582 12.124356 0 0 0
304 1 -8.853105 -4.707279 12.124356 0 0 0
305 1 -9.807653 -2.084681 12.124356 0 0 0
306 1 -10.002337 -0.699432 12.124356 0 0 0
329 1 -1.048082 -9.971834 12.124356 0 0 0
330 1 -2.425693 -9.728924 12.124356 0 0 0
331 1 -6.709213 -7.451336 13.336791 0 0 0
332 1 -7.680945 -6.445078 13.336791 0 0 0
333 1 -9.159902 -4.078251 13.336791 0 0 0
334 1 -9.638342 -2.76375 13.336791 0 0 0
358 1 -0.349929 -10.020653 13.336791 0 0 0
359 1 -3.09844 -9.536017 13.336791 0 0 0
360 1 -4.395443 -9.011993 13.336791 0 0 0
361 1 -8.11182 -5.893582 14.549227 0 0 0
362 1 -8.853105 -4.707279 14.549227 0 0 0
363 1 -9.807653 -2.084681 14.549227 0 0 0
364 1 -10.002337 -0.699432 14.549227 0 0 0
387 1 -1.048082 -9.971834 14.549227 0 0 0
388 1 -2.425693 -9.728924 14.549227 0 0 0
389 1 -5.013381 -8.68343 14.549227 0 0 0
390 1 -6.173091 -7.901196 14.549227 0 0 0
391 1 -9.159902 -4.078251 15.761662 0 0 0
392 1 -9.638342 -2.76375 15.761662 0 0 0
416 1 -0.349929 -10.020653 15.761662 0 0 0
417 1 -3.09844 -9.536017 15.761662 0 0 0
418 1 -4.395443 -9.011993 15.761662 0 0 0
419 1 -6.709213 -7.451336 15.761662 0 0 0
420 1 -7.680945 -6.445078 15.761662 0 0 0
421 1 -9.807653 -2.084681 16.974098 0 0 0
422 1 -10.002337 -0.699432 16.974098 0 0 0
445 1 -1.048082 -9.971834 16.974098 0 0 0
446 1 -2.425693 -9.728924 16.974098 0 0 0
447 1 -5.013381 -8.68343 16.974098 0 0 0
448 1 -6.173091 -7.901196 16.974098 0 0 0
449 1 -8.11182 -5.893582 16.974098 0 0 0
450 1 -8.853105 -4.707279 16.974098 0 0 0
474 1 -0.349929 -10.020653 18.186533 0 0 0
475 1 -3.09844 -9.536017 18.186533 0 0 0
476 1 -4.395443 -9.011993 18.186533 0 0 0
477 1 -6.709213 -7.451336 18.186533 0 0 0
478 1 -7.680945 -6.445078 18.186533 0 0 0
479 1 -9.159902 -4.078251 18.186533 0 0 0
480 1 -9.638342 -2.76375 18.186533 0 0 0
503 1 -1.048082 -9.971834 19.398969 0 0 0
504 1 -2.425693 -9.728924 19.398969 0 0 0
505 1 -5.013381 -8.68343 19.398969 0 0 0
506 1 -6.173091 -7.901196 19.398969 0 0 0
507 1 -8.11182 -5.893582 19.398969 0 0 0
508 1 -8.853105 -4.707279 19.398969 0 0 0
509 1 -9.807653 -2.084681 19.398969 0 0 0
510 1 -10.002337 -0.699432 19.398969 0 0 0
532 1 -0.349929 -10.020653 20.611405 0 0 0
533 1 -3.09844 -9.536017 20.611405 0 0 0
534 1 -4.395443 -9.011993 20.611405 0 0 0
535 1 -6.709213 -7.451336 20.611405 0 0 0
536 1 -7.680945 -6.445078 20.611405 0 0 0
537 1 -9.159902 -4.078251 20.611405 0 0 0
538 1 -9.638342 -2.76375 20.611405 0 0 0
561 1 -1.048082 -9.971834 21.82384 0 0 0
562 1 -2.425693 -9.728924 21.82384 0 0 0
563 1 -5.013381 -8.68343 21.82384 0 0 0
564 1 -6.173091 -7.901196 21.82384 0 0 0
565 1 -8.11182 -5.893582 21.82384 0 0 0
566 1 -8.853105 -4.707279 21.82384 0 0 0
567 1 -9.807653 -2.084681 21.82384 0 0 0
568 1 -10.002337 -0.699432 21.82384 0 0 0
590 1 -0.349929 -10.020653 23.036276 0 0 0
591 1 -3.09844 -9.536017 23.036276 0 0 0
592 1 -4.395443 -9.011993 23.036276 0 0 0
593 1 -6.709213 -7.451336 23.036276 0 0 0
594 1 -7.680945 -6.445078 23.036276 0 0 0
595 1 -9.159902 -4.078251 23.036276 0 0 0
596 1 -9.638342 -2.76375 23.036276 0 0 0
619 1 -1.048082 -9.971834 24.248711 0 0 0
620 1 -2.425693 -9.728924 24.248711 0 0 0
621 1 -5.013381 -8.68343 24.248711 0 0 0
622 1 -6.173091 -7.901196 24.248711 0 0 0
623 1 -8.11182 -5.893582 24.248711 0 0 0
624 1 -8.853105 -4.707279 24.248711 0 0 0
625 1 -9.807653 -2.084681 24.248711 0 0 0
626 1 -10.002337 -0.699432 24.248711 0 0 0
648 1 -0.349929 -10.020653 25.461147 0 0 0
649 1 -3.09844 -9.536017 25.461147 0 0 0
650 1 -4.395443 -9.011993 25.461147 0 0 0
651 1 -6.709213 -7.451336 25.461147 0 0 0
652 1 -7.680945 -6.445078 25.461147 0 0 0
653 1 -9.159902 -4.078251 25.461147 0 0 0
654 1 -9.638342 -2.76375 25.461147 0 0 0
677 1 -1.048082 -9.971834 26.673582 0 0 0
678 1 -2.425693 -9.728924 26.673582 0 0 0
679 1 -5.013381 -8.68343 26.673582 0 0 0
680 1 -6.173091 -7.901196 26.673582 0 0 0
681 1 -8.11182 -5.893582 26.673582 0 0 0
682 1 -8.853105 -4.707279 26.673582 0 0 0
683 1 -9.807653 -2.084681 26.673582 0 0 0
684 1 -10.002337 -0.699432 26.673582 0 0 0
706 1 -0.349929 -10.020653 27.886018 0 0 0
707 1 -3.09844 -9.536017 27.886018 0 0 0
708 1 -4.395443 -9.011993 27.886018 0 0 0
709 1 -6.709213 -7.451336 27.886018 0 0 0
710 1 -7.680945 -6.445078 27.886018 0 0 0
711 1 -9.159902 -4.078251 27.886018 0 0 0
712 1 -9.638342 -2.76375 27.886018 0 0 0
735 1 -1.048082 -9.971834 29.098454 0 0 0
736 1 -2.425693 -9.728924 29.098454 0 0 0
737 1 -5.013381 -8.68343 29.098454 0 0 0
738 1 -6.173091 -7.901196 29.098454 0 0 0
739 1 -8.11182 -5.893582 29.098454 0 0 0
740 1 -8.853105 -4.707279 29.098454 0 0 0
741 1 -9.807653 -2.084681 29.098454 0 0 0
742 1 -10.002337 -0.699432 29.098454 0 0 0
764 1 -0.349929 -10.020653 30.310889 0 0 0
765 1 -3.09844 -9.536017 30.310889 0 0 0
766 1 -4.395443 -9.011993 30.310889 0 0 0
767 1 -6.709213 -7.451336 30.310889 0 0 0
768 1 -7.680945 -6.445078 30.310889 0 0 0
769 1 -9.159902 -4.078251 30.310889 0 0 0
770 1 -9.638342 -2.76375 30.310889 0 0 0
793 1 -1.048082 -9.971834 31.523325 0 0 0
794 1 -2.425693 -9.728924 31.523325 0 0 0
795 1 -5.013381 -8.68343 31.523325 0 0 0
796 1 -6.173091 -7.901196 31.523325 0 0 0
797 1 -8.11182 -5.893582 31.523325 0 0 0
798 1 -8.853105 -4.707279 31.523325 0 0 0
799 1 -9.807653 -2.084681 31.523325 0 0 0
800 1 -10.002337 -0.699432 31.523325 0 0 0
822 1 -0.349929 -10.020653 32.73576 0 0 0
823 1 -3.09844 -9.536017 32.73576 0 0 0
824 1 -4.395443 -9.011993 32.73576 0 0 0
825 1 -6.709213 -7.451336 32.73576 0 0 0
826 1 -7.680945 -6.445078 32.73576 0 0 0
827 1 -9.159902 -4.078251 32.73576 0 0 0
828 1 -9.638342 -2.76375 32.73576 0 0 0
851 1 -1.048082 -9.971834 33.948196 0 0 0
852 1 -2.425693 -9.728924 33.948196 0 0 0
853 1 -5.013381 -8.68343 33.948196 0 0 0
854 1 -6.173091 -7.901196 33.948196 0 0 0
855 1 -8.11182 -5.893582 33.948196 0 0 0
856 1 -8.853105 -4.707279 33.948196 0 0 0
857 1 -9.807653 -2.084681 33.948196 0 0 0
858 1 -10.002337 -0.699432 33.948196 0 0 0
880 1 -0.349929 -10.020653 35.160631 0 0 0
881 1 -3.09844 -9.536017 35.160631 0 0 0
882 1 -4.395443 -9.011993 35.160631 0 0 0
883 1 -6.709213 -7.451336 35.160631 0 0 0
884 1 -7.680945 -6.445078 35.160631 0 0 0
885 1 -9.159902 -4.078251 35.160631 0 0 0
886 1 -9.638342 -2.76375 35.160631 0 0 0
909 1 -1.048082 -9.971834 36.373067 0 0 0
910 1 -2.425693 -9.728924 36.373067 0 0 0
911 1 -5.013381 -8.68343 36.373067 0 0 0
912 1 -6.173091 -7.901196 36.373067 0 0 0
913 1 -8.11182 -5.893582 36.373067 0 0 0
914 1 -8.853105 -4.707279 36.373067 0 0 0
915 1 -9.807653 -2.084681 36.373067 0 0 0
916 1 -10.002337 -0.699432 36.373067 0 0 0
938 1 -0.349929 -10.020653 37.585503 0 0 0
939 1 -3.09844 -9.536017 37.585503 0 0 0
940 1 -4.395443 -9.011993 37.585503 0 0 0
941 1 -6.709213 -7.451336 37.585503 0 0 0
942 1 -7.680945 -6.445078 37.585503 0 0 0
943 1 -9.159902 -4.078251 37.585503 0 0 0
944 1 -9.638342 -2.76375 37.585503 0 0 0
967 1 -1.048082 -9.971834 38.797938 0 0 0
968 1 -2.425693 -9.728924 38.797938 0 0 0
969 1 -5.013381 -8.68343 38.797938 0 0 0
970 1 -6.173091 -7.901196 38.797938 0 0 0
971 1 -8.11182 -5.893582 38.797938 0 0 0
972 1 -8.853105 -4.707279 38.797938 0 0 0
973 1 -9.807653 -2.084681 38.797938 0 0 0
974 1 -10.002337 -0.699432 38.797938 0 0 0
996 1 -0.349929 -10.020653 40.010374 0 0 0
997 1 -3.09844 -9.536017 40.010374 0 0 0
998 1 -4.395443 -9.011993 40.010374 0 0 0
999 1 -6.709213 -7.451336 40.010374 0 0 0
1000 1 -7.680945 -6.445078 40.010374 0 0 0
1001 1 -9.159902 -4.078251 40.010374 0 0 0
1002 1 -9.638342 -2.76375 40.010374 0 0 0
1105 3 -4.347403 -0.067317 5.849738 0 0 0
1110 3 -5.510903 -0.160117 3.923538 0 0 0
1114 3 -2.167103 -0.054917 4.842538 0 0 0
1116 3 -3.488803 -0.486717 4.843438 0 0 0
1117 3 -4.200603 -0.544417 3.653838 0 0 0
1120 3 -3.600603 -0.159417 2.460138 0 0 0
1157 2 -0.679562 -5.41518 10.813543 0 0 0
1158 2 -1.100362 -4.12628 10.503443 0 0 0
1160 2 -0.276662 -3.03938 10.769243 0 0 0
1161 2 -0.173562 -2.00688 9.849943 0 0 0
1162 2 -1.820662 -4.18658 9.318743 0 0 0
1163 2 -1.711962 -3.15168 8.392643 0 0 0
1164 2 -0.883962 -2.06358 8.657943 0 0 0
1166 2 -0.332262 -7.30508 9.381743 0 0 0
1168 2 -1.137862 -6.25768 9.812243 0 0 0
1169 2 -1.849462 -5.50678 8.888143 0 0 0
1170 2 -0.243562 -7.59878 8.028343 0 0 0
1171 2 -0.943462 -6.83658 7.101043 0 0 0
1172 2 -1.753562 -5.78758 7.530243 0 0 0
1181 2 -0.772062 -5.17098 5.620143 0 0 0
1182 2 -0.337262 -6.46208 5.909743 0 0 0
1185 2 -0.741862 -2.53818 6.480243 0 0 0
1186 2 -1.637762 -3.43918 7.036943 0 0 0
1187 2 -1.654862 -4.75558 6.607343 0 0 0
1191 2 -0.283562 -1.67408 7.468943 0 0 0
1261 2 -1.802627 -2.108044 19.015053 0 0 0
1262 2 -0.931327 -2.522044 18.019453 0 0 0
1263 2 -2.690527 -3.008444 19.595553 0 0 0
1264 2 -0.957327 -3.842044 17.593053 0 0 0
1265 2 -0.865727 -4.132144 16.234653 0 0 0
1266 2 -0.818827 -1.488044 17.095853 0 0 0
1267 2 -0.726327 -1.783744 15.741753 0 0 0
1268 2 -0.749927 -3.100944 15.306953 0 0 0
1269 2 -4.408427 -1.345944 19.554753 0 0 0
1270 2 -3.532827 -0.436844 18.981853 0 0 0
1271 2 -3.998727 -2.635344 19.865553 0 0 0
1272 2 -2.224927 -0.819644 18.710653 0 0 0
1273 2 -1.617227 -0.431044 17.526653 0 0 0
1277 2 -6.059427 -3.521144 19.023153 0 0 0
1278 2 -6.480227 -2.232244 18.713053 0 0 0
1279 2 -4.814027 -3.723844 19.601453 0 0 0
1280 2 -5.656527 -1.145344 18.978853 0 0 0
1281 2 -5.553427 -0.112844 18.059553 0 0 0
1282 2 -7.200527 -2.292544 17.528353 0 0 0
1283 2 -7.091827 -1.257644 16.602253 0 0 0
1284 2 -6.263827 -0.169544 16.867553 0 0 0
1285 2 -4.459927 -5.611944 18.164153 0 0 0
1286 2 -5.712127 -5.411044 17.591353 0 0 0
1287 2 -4.008427 -4.767044 19.172953 0 0 0
1288 2 -6.517727 -4.363644 18.021853 0 0 0
1289 2 -7.229327 -3.612744 17.097753 0 0 0
1290 2 -5.623427 -5.704744 16.237953 0 0 0
1291 2 -6.323327 -4.942544 15.310653 0 0 0
1292 2 -7.133427 -3.893544 15.739853 0 0 0
1293 2 -1.832727 -4.753944 18.163453 0 0 0
1294 2 -2.279627 -5.599544 17.156953 0 0 0
1295 2 -2.690627 -4.335244 19.171153 0 0 0
1296 2 -3.601327 -6.031344 17.157853 0 0 0
1297 2 -4.313127 -6.089044 15.968253 0 0 0
1298 2 -1.680227 -5.223644 15.963653 0 0 0
1299 2 -2.390127 -5.270444 14.769653 0 0 0
1300 2 -3.713127 -5.704044 14.774553 0 0 0
1301 2 -6.151927 -3.276944 13.829753 0 0 0
1302 2 -5.717127 -4.568044 14.119353 0 0 0
1303 2 -4.407627 -4.945544 13.843153 0 0 0
1304 2 -5.250627 -2.379744 13.260553 0 0 0
1305 2 -6.121727 -0.644144 14.689853 0 0 0
1306 2 -7.017627 -1.545144 15.246553 0 0 0
1307 2 -7.034727 -2.861544 14.816953 0 0 0
1308 2 -5.235227 -1.057944 13.700553 0 0 0
1312 2 -3.917027 -0.625644 13.692153 0 0 0
1313 2 -1.871527 -1.864644 13.822553 0 0 0
1314 2 -1.417427 -1.006344 14.816953 0 0 0
1316 2 -3.127127 -1.678044 13.249053 0 0 0
1317 2 -3.523027 -4.048144 13.261553 0 0 0
1318 2 -2.270827 -4.247144 13.836853 0 0 0
1319 2 -1.450727 -3.160944 14.110553 0 0 0
1320 2 -3.947327 -2.763144 12.969153 0 0 0
1410 2 -5.392024 -0.005904 24.447563 0 0 0
1416 2 -3.369924 -0.332504 25.367463 0 0 0
1417 2 -4.081724 -0.390204 24.177863 0 0 0
1420 2 -3.481724 -0.005204 22.984163 0 0 0
1457 3 -0.86682 -5.468548 31.337567 0 0 0
1458 3 -1.28762 -4.179648 31.027467 0 0 0
1460 3 -0.46392 -3.092748 31.293267 0 0 0
1461 3 -0.36082 -2.060248 30.373967 0 0 0
1462 3 -2.00792 -4.239948 29.842767 0 0 0
1463 3 -1.89922 -3.205048 28.916667 0 0 0
1464 3 -1.07122 -2.116948 29.181967 0 0 0
1466 3 -0.51952 -7.358448 29.905767 0 0 0
1468 3 -1.32512 -6.311048 30.336267 0 0 0
1469 3 -2.03672 -5.560148 29.412167 0 0 0
1470 3 -0.43082 -7.652148 28.552367 0 0 0
1471 3 -1.13072 -6.889948 27.625067 0 0 0
1472 3 -1.94082 -5.840948 28.054267 0 0 0
1481 3 -0.95932 -5.224348 26.144167 0 0 0
1482 3 -0.52452 -6.515448 26.433767 0 0 0
1484 3 -0.05802 -4.327148 25.574967 0 0 0
1485 3 -0.92912 -2.591548 27.004267 0 0 0
1486 3 -1.82502 -3.492548 27.560967 0 0 0
1487 3 -1.84212 -4.808948 27.131367 0 0 0
1488 3 -0.04262 -3.005348 26.014967 0 0 0
1491 3 -0.47082 -1.727448 27.992967 0 0 0
1561 3 -1.908611 -1.9447 39.539077 0 0 0
1562 3 -1.037311 -2.3587 38.543477 0 0 0
1563 3 -2.796511 -2.8451 40.119577 0 0 0
1564 3 -1.063311 -3.6787 38.117077 0 0 0
1565 3 -0.971711 -3.9688 36.758677 0 0 0
1566 3 -0.924811 -1.3247 37.619877 0 0 0
1567 3 -0.832311 -1.6204 36.265777 0 0 0
1568 3 -0.855911 -2.9376 35.830977 0 0 0
1569 3 -4.514411 -1.1826 40.078777 0 0 0
1570 3 -3.638811 -0.2735 39.505877 0 0 0
1571 3 -4.104711 -2.472 40.389577 0 0 0
1572 3 -2.330911 -0.6563 39.234677 0 0 0
1573 3 -1.723211 -0.2677 38.050677 0 0 0
1577 3 -6.165411 -3.3578 39.547177 0 0 0
1578 3 -6.586211 -2.0689 39.237077 0 0 0
1579 3 -4.920011 -3.5605 40.125477 0 0 0
1580 3 -5.762511 -0.982 39.502877 0 0 0
1582 3 -7.306511 -2.1292 38.052377 0 0 0
1583 3 -7.197811 -1.0943 37.126277 0 0 0
1584 3 -6.369811 -0.0062 37.391577 0 0 0
1585 3 -4.565911 -5.4486 38.688177 0 0 0
1586 3 -5.818111 -5.2477 38.115377 0 0 0
1587 3 -4.114411 -4.6037 39.696977 0 0 0
1588 3 -6.623711 -4.2003 38.545877 0 0 0
1589 3 -7.335311 -3.4494 37.621777 0 0 0
1590 3 -5.729411 -5.5414 36.761977 0 0 0
1591 3 -6.429311 -4.7792 35.834677 0 0 0
1592 3 -7.239411 -3.7302 36.263877 0 0 0
1593 3 -1.938711 -4.5906 38.687477 0 0 0
1594 3 -2.385611 -5.4362 37.680977 0 0 0
1595 3 -2.796611 -4.1719 39.695177 0 0 0
1596 3 -3.707311 -5.868 37.681877 0 0 0
1597 3 -4.419111 -5.9257 36.492277 0 0 0
1598 3 -1.786211 -5.0603 36.487677 0 0 0
1599 3 -2.496111 -5.1071 35.293677 0 0 0
1600 3 -3.819111 -5.5407 35.298577 0 0 0
1601 3 -6.257911 -3.1136 34.353777 0 0 0
1602 3 -5.823111 -4.4047 34.643377 0 0 0
1603 3 -4.513611 -4.7822 34.367177 0 0 0
1604 3 -5.356611 -2.2164 33.784577 0 0 0
1605 3 -6.227711 -0.4808 35.213877 0 0 0
1606 3 -7.123611 -1.3818 35.770577 0 0 0
1607 3 -7.140711 -2.6982 35.340977 0 0 0
1608 3 -5.341211 -0.8946 34.224577 0 0 0
1612 3 -4.023011 -0.4623 34.216177 0 0 0
1613 3 -1.977511 -1.7013 34.346577 0 0 0
1614 3 -1.523411 -0.843 35.340977 0 0 0
1616 3 -3.233111 -1.5147 33.773077 0 0 0
1617 3 -3.629011 -3.8848 33.785577 0 0 0
1618 3 -2.376811 -4.0838 34.360877 0 0 0
1619 3 -1.556711 -2.9976 34.634577 0 0 0
1620 3 -4.053311 -2.5998 33.493177 0 0 0
1629 1 -1.048082 -9.971834 41.222809 0 0 0
1630 1 -2.425693 -9.728924 41.222809 0 0 0
1631 1 -5.013381 -8.68343 41.222809 0 0 0
1632 1 -6.173091 -7.901196 41.222809 0 0 0
1633 1 -8.11182 -5.893582 41.222809 0 0 0
1634 1 -8.853105 -4.707279 41.222809 0 0 0
1635 1 -9.807653 -2.084681 41.222809 0 0 0
1636 1 -10.002337 -0.699432 41.222809 0 0 0
1658 1 -0.349929 -10.020653 42.435244999999995 0 0 0
1659 1 -3.09844 -9.536017 42.435244999999995 0 0 0
1660 1 -4.395443 -9.011993 42.435244999999995 0 0 0
1661 1 -6.709213 -7.451336 42.435244999999995 0 0 0
1662 1 -7.680945 -6.445078 42.435244999999995 0 0 0
1663 1 -9.159902 -4.078251 42.435244999999995 0 0 0
1664 1 -9.638342 -2.76375 42.435244999999995 0 0 0
1687 1 -1.048082 -9.971834 43.64768 0 0 0
1688 1 -2.425693 -9.728924 43.64768 0 0 0
1689 1 -5.013381 -8.68343 43.64768 0 0 0
1690 1 -6.173091 -7.901196 43.64768 0 0 0
1691 1 -8.11182 -5.893582 43.64768 0 0 0
1692 1 -8.853105 -4.707279 43.64768 0 0 0
1693 1 -9.807653 -2.084681 43.64768 0 0 0
1694 1 -10.002337 -0.699432 43.64768 0 0 0
1716 1 -0.349929 -10.020653 44.860116 0 0 0
1717 1 -3.09844 -9.536017 44.860116 0 0 0
1718 1 -4.395443 -9.011993 44.860116 0 0 0
1719 1 -6.709213 -7.451336 44.860116 0 0 0
1720 1 -7.680945 -6.445078 44.860116 0 0 0
1721 1 -9.159902 -4.078251 44.860116 0 0 0
1722 1 -9.638342 -2.76375 44.860116 0 0 0
1745 1 -1.048082 -9.971834 46.072551 0 0 0
1746 1 -2.425693 -9.728924 46.072551 0 0 0
1747 1 -5.013381 -8.68343 46.072551 0 0 0
1748 1 -6.173091 -7.901196 46.072551 0 0 0
1749 1 -8.11182 -5.893582 46.072551 0 0 0
1750 1 -8.853105 -4.707279 46.072551 0 0 0
1751 1 -9.807653 -2.084681 46.072551 0 0 0
1752 1 -10.002337 -0.699432 46.072551 0 0 0
1774 1 -0.349929 -10.020653 47.284987 0 0 0
1775 1 -3.09844 -9.536017 47.284987 0 0 0
1776 1 -4.395443 -9.011993 47.284987 0 0 0
1777 1 -6.709213 -7.451336 47.284987 0 0 0
1778 1 -7.680945 -6.445078 47.284987 0 0 0
1779 1 -9.159902 -4.078251 47.284987 0 0 0
1780 1 -9.638342 -2.76375 47.284987 0 0 0
1803 1 -1.048082 -9.971834 48.497422 0 0 0
1804 1 -2.425693 -9.728924 48.497422 0 0 0
1805 1 -5.013381 -8.68343 48.497422 0 0 0
1806 1 -6.173091 -7.901196 48.497422 0 0 0
1807 1 -8.11182 -5.893582 48.497422 0 0 0
1808 1 -8.853105 -4.707279 48.497422 0 0 0
1809 1 -9.807653 -2.084681 48.497422 0 0 0
1810 1 -10.002337 -0.699432 48.497422 0 0 0
1832 1 -0.349929 -10.020653 49.709858 0 0 0
1833 1 -3.09844 -9.536017 49.709858 0 0 0
1834 1 -4.395443 -9.011993 49.709858 0 0 0
1835 1 -6.709213 -7.451336 49.709858 0 0 0
1836 1 -7.680945 -6.445078 49.709858 0 0 0
1837 1 -9.159902 -4.078251 49.709858 0 0 0
1838 1 -9.638342 -2.76375 49.709858 0 0 0
1861 1 -1.048082 -9.971834 50.922293999999994 0 0 0
1862 1 -2.425693 -9.728924 50.922293999999994 0 0 0
1863 1 -5.013381 -8.68343 50.922293999999994 0 0 0
1864 1 -6.173091 -7.901196 50.922293999999994 0 0 0
1865 1 -8.11182 -5.893582 50.922293999999994 0 0 0
1866 1 -8.853105 -4.707279 50.922293999999994 0 0 0
1867 1 -9.807653 -2.084681 50.922293999999994 0 0 0
1868 1 -10.002337 -0.699432 50.922293999999994 0 0 0
1891 1 -3.09844 -9.536017 52.134729 0 0 0
1892 1 -4.395443 -9.011993 52.134729 0 0 0
1893 1 -6.709213 -7.451336 52.134729 0 0 0
1894 1 -7.680945 -6.445078 52.134729 0 0 0
1895 1 -9.159902 -4.078251 52.134729 0 0 0
1896 1 -9.638342 -2.76375 52.134729 0 0 0
1920 1 -0.349929 -10.020653 52.134729 0 0 0
1921 1 -5.013381 -8.68343 53.347165 0 0 0
1922 1 -6.173091 -7.901196 53.347165 0 0 0
1923 1 -8.11182 -5.893582 53.347165 0 0 0
1924 1 -8.853105 -4.707279 53.347165 0 0 0
1925 1 -9.807653 -2.084681 53.347165 0 0 0
1926 1 -10.002337 -0.699432 53.347165 0 0 0
1949 1 -1.048082 -9.971834 53.347165 0 0 0
1950 1 -2.425693 -9.728924 53.347165 0 0 0
1951 1 -6.709213 -7.451336 54.559599999999996 0 0 0
1952 1 -7.680945 -6.445078 54.559599999999996 0 0 0
1953 1 -9.159902 -4.078251 54.559599999999996 0 0 0
1954 1 -9.638342 -2.76375 54.559599999999996 0 0 0
1978 1 -0.349929 -10.020653 54.559599999999996 0 0 0
1979 1 -3.09844 -9.536017 54.559599999999996 0 0 0
1980 1 -4.395443 -9.011993 54.559599999999996 0 0 0
1981 1 -8.11182 -5.893582 55.772036 0 0 0
1982 1 -8.853105 -4.707279 55.772036 0 0 0
1983 1 -9.807653 -2.084681 55.772036 0 0 0
1984 1 -10.002337 -0.699432 55.772036 0 0 0
2007 1 -1.048082 -9.971834 55.772036 0 0 0
2008 1 -2.425693 -9.728924 55.772036 0 0 0
2009 1 -5.013381 -8.68343 55.772036 0 0 0
2010 1 -6.173091 -7.901196 55.772036 0 0 0
2011 1 -9.159902 -4.078251 56.984471 0 0 0
2012 1 -9.638342 -2.76375 56.984471 0 0 0
2036 1 -0.349929 -10.020653 56.984471 0 0 0
2037 1 -3.09844 -9.536017 56.984471 0 0 0
2038 1 -4.395443 -9.011993 56.984471 0 0 0
2039 1 -6.709213 -7.451336 56.984471 0 0 0
2040 1 -7.680945 -6.445078 56.984471 0 0 0
2041 1 -9.807653 -2.084681 58.196906999999996 0 0 0
2042 1 -10.002337 -0.699432 58.196906999999996 0 0 0
2065 1 -1.048082 -9.971834 58.196906999999996 0 0 0
2066 1 -2.425693 -9.728924 58.196906999999996 0 0 0
2067 1 -5.013381 -8.68343 58.196906999999996 0 0 0
2068 1 -6.173091 -7.901196 58.196906999999996 0 0 0
2069 1 -8.11182 -5.893582 58.196906999999996 0 0 0
2070 1 -8.853105 -4.707279 58.196906999999996 0 0 0
2094 1 -0.349929 -10.020653 59.409341999999995 0 0 0
2095 1 -3.09844 -9.536017 59.409341999999995 0 0 0
2096 1 -4.395443 -9.011993 59.409341999999995 0 0 0
2097 1 -6.709213 -7.451336 59.409341999999995 0 0 0
2098 1 -7.680945 -6.445078 59.409341999999995 0 0 0
2099 1 -9.159902 -4.078251 59.409341999999995 0 0 0
2100 1 -9.638342 -2.76375 59.409341999999995 0 0 0
2123 1 -1.048082 -9.971834 60.621778 0 0 0
2124 1 -2.425693 -9.728924 60.621778 0 0 0
2125 1 -5.013381 -8.68343 60.621778 0 0 0
2126 1 -6.173091 -7.901196 60.621778 0 0 0
2127 1 -8.11182 -5.893582 60.621778 0 0 0
2128 1 -8.853105 -4.707279 60.621778 0 0 0
2129 1 -9.807653 -2.084681 60.621778 0 0 0
2130 1 -10.002337 -0.699432 60.621778 0 0 0
2152 1 -0.349929 -10.020653 61.834214 0 0 0
2153 1 -3.09844 -9.536017 61.834214 0 0 0
2154 1 -4.395443 -9.011993 61.834214 0 0 0
2155 1 -6.709213 -7.451336 61.834214 0 0 0
2156 1 -7.680945 -6.445078 61.834214 0 0 0
2157 1 -9.159902 -4.078251 61.834214 0 0 0
2158 1 -9.638342 -2.76375 61.834214 0 0 0
2181 1 -1.048082 -9.971834 63.046649 0 0 0
2182 1 -2.425693 -9.728924 63.046649 0 0 0
2183 1 -5.013381 -8.68343 63.046649 0 0 0
2184 1 -6.173091 -7.901196 63.046649 0 0 0
2185 1 -8.11182 -5.893582 63.046649 0 0 0
2186 1 -8.853105 -4.707279 63.046649 0 0 0
2187 1 -9.807653 -2.084681 63.046649 0 0 0
2188 1 -10.002337 -0.699432 63.046649 0 0 0
2210 1 -0.349929 -10.020653 64.259085 0 0 0
2211 1 -3.09844 -9.536017 64.259085 0 0 0
2212 1 -4.395443 -9.011993 64.259085 0 0 0
2213 1 -6.709213 -7.451336 64.259085 0 0 0
2214 1 -7.680945 -6.445078 64.259085 0 0 0
2215 1 -9.159902 -4.078251 64.259085 0 0 0
2216 1 -9.638342 -2.76375 64.259085 0 0 0
2239 1 -1.048082 -9.971834 65.47152 0 0 0
2240 1 -2.425693 -9.728924 65.47152 0 0 0
2241 1 -5.013381 -8.68343 65.47152 0 0 0
2242 1 -6.173091 -7.901196 65.47152 0 0 0
2243 1 -8.11182 -5.893582 65.47152 0 0 0
2244 1 -8.853105 -4.707279 65.47152 0 0 0
2245 1 -9.807653 -2.084681 65.47152 0 0 0
2246 1 -10.002337 -0.699432 65.47152 0 0 0
2268 1 -0.349929 -10.020653 66.683956 0 0 0
2269 1 -3.09844 -9.536017 66.683956 0 0 0
2270 1 -4.395443 -9.011993 66.683956 0 0 0
2271 1 -6.709213 -7.451336 66.683956 0 0 0
2272 1 -7.680945 -6.445078 66.683956 0 0 0
2273 1 -9.159902 -4.078251 66.683956 0 0 0
2274 1 -9.638342 -2.76375 66.683956 0 0 0
2297 1 -1.048082 -9.971834 67.896391 0 0 0
2298 1 -2.425693 -9.728924 67.896391 0 0 0
2299 1 -5.013381 -8.68343 67.896391 0 0 0
2300 1 -6.173091 -7.901196 67.896391 0 0 0
2301 1 -8.11182 -5.893582 67.896391 0 0 0
2302 1 -8.853105 -4.707279 67.896391 0 0 0
2303 1 -9.807653 -2.084681 67.896391 0 0 0
2304 1 -10.002337 -0.699432 67.896391 0 0 0
2326 1 -0.349929 -10.020653 69.10882699999999 0 0 0
2327 1 -3.09844 -9.536017 69.10882699999999 0 0 0
2328 1 -4.395443 -9.011993 69.10882699999999 0 0 0
2329 1 -6.709213 -7.451336 69.10882699999999 0 0 0
2330 1 -7.680945 -6.445078 69.10882699999999 0 0 0
2331 1 -9.159902 -4.078251 69.10882699999999 0 0 0
2332 1 -9.638342 -2.76375 69.10882699999999 0 0 0
2355 1 -1.048082 -9.971834 70.321263 0 0 0
2356 1 -2.425693 -9.728924 70.321263 0 0 0
2357 1 -5.013381 -8.68343 70.321263 0 0 0
2358 1 -6.173091 -7.901196 70.321263 0 0 0
2359 1 -8.11182 -5.893582 70.321263 0 0 0
2360 1 -8.853105 -4.707279 70.321263 0 0 0
2361 1 -9.807653 -2.084681 70.321263 0 0 0
2362 1 -10.002337 -0.699432 70.321263 0 0 0
2384 1 -0.349929 -10.020653 71.533698 0 0 0
2385 1 -3.09844 -9.536017 71.533698 0 0 0
2386 1 -4.395443 -9.011993 71.533698 0 0 0
2387 1 -6.709213 -7.451336 71.533698 0 0 0
2388 1 -7.680945 -6.445078 71.533698 0 0 0
2389 1 -9.159902 -4.078251 71.533698 0 0 0
2390 1 -9.638342 -2.76375 71.533698 0 0 0
2413 1 -1.048082 -9.971834 72.746134 0 0 0
2414 1 -2.425693 -9.728924 72.746134 0 0 0
2415 1 -5.013381 -8.68343 72.746134 0 0 0
2416 1 -6.173091 -7.901196 72.746134 0 0 0
2417 1 -8.11182 -5.893582 72.746134 0 0 0
2418 1 -8.853105 -4.707279 72.746134 0 0 0
2419 1 -9.807653 -2.084681 72.746134 0 0 0
2420 1 -10.002337 -0.699432 72.746134 0 0 0
2442 1 -0.349929 -10.020653 73.958569 0 0 0
2443 1 -3.09844 -9.536017 73.958569 0 0 0
2444 1 -4.395443 -9.011993 73.958569 0 0 0
2445 1 -6.709213 -7.451336 73.958569 0 0 0
2446 1 -7.680945 -6.445078 73.958569 0 0 0
2447 1 -9.159902 -4.078251 73.958569 0 0 0
2448 1 -9.638342 -2.76375 73.958569 0 0 0
2471 1 -1.048082 -9.971834 75.17100500000001 0 0 0
2472 1 -2.425693 -9.728924 75.17100500000001 0 0 0
2473 1 -5.013381 -8.68343 75.17100500000001 0 0 0
2474 1 -6.173091 -7.901196 75.17100500000001 0 0 0
2475 1 -8.11182 -5.893582 75.17100500000001 0 0 0
2476 1 -8.853105 -4.707279 75.17100500000001 0 0 0
2477 1 -9.807653 -2.084681 75.17100500000001 0 0 0
2478 1 -10.002337 -0.699432 75.17100500000001 0 0 0
2500 1 -0.349929 -10.020653 76.38344000000001 0 0 0
2501 1 -3.09844 -9.536017 76.38344000000001 0 0 0
2502 1 -4.395443 -9.011993 76.38344000000001 0 0 0
2503 1 -6.709213 -7.451336 76.38344000000001 0 0 0
2504 1 -7.680945 -6.445078 76.38344000000001 0 0 0
2505 1 -9.159902 -4.078251 76.38344000000001 0 0 0
2506 1 -9.638342 -2.76375 76.38344000000001 0 0 0
2529 1 -1.048082 -9.971834 77.595876 0 0 0
2530 1 -2.425693 -9.728924 77.595876 0 0 0
2531 1 -5.013381 -8.68343 77.595876 0 0 0
2532 1 -6.173091 -7.901196 77.595876 0 0 0
2533 1 -8.11182 -5.893582 77.595876 0 0 0
2534 1 -8.853105 -4.707279 77.595876 0 0 0
2535 1 -9.807653 -2.084681 77.595876 0 0 0
2536 1 -10.002337 -0.699432 77.595876 0 0 0
2558 1 -0.349929 -10.020653 78.808312 0 0 0
2559 1 -3.09844 -9.536017 78.808312 0 0 0
2560 1 -4.395443 -9.011993 78.808312 0 0 0
2561 1 -6.709213 -7.451336 78.808312 0 0 0
2562 1 -7.680945 -6.445078 78.808312 0 0 0
2563 1 -9.159902 -4.078251 78.808312 0 0 0
2564 1 -9.638342 -2.76375 78.808312 0 0 0
2587 1 -1.048082 -9.971834 80.020747 0 0 0
2588 1 -2.425693 -9.728924 80.020747 0 0 0
2589 1 -5.013381 -8.68343 80.020747 0 0 0
2590 1 -6.173091 -7.901196 80.020747 0 0 0
2591 1 -8.11182 -5.893582 80.020747 0 0 0
2592 1 -8.853105 -4.707279 80.020747 0 0 0
2593 1 -9.807653 -2.084681 80.020747 0 0 0
2594 1 -10.002337 -0.699432 80.020747 0 0 0
2616 1 -0.349929 -10.020653 81.233183 0 0 0
2617 1 -3.09844 -9.536017 81.233183 0 0 0
2618 1 -4.395443 -9.011993 81.233183 0 0 0
2619 1 -6.709213 -7.451336 81.233183 0 0 0
2620 1 -7.680945 -6.445078 81.233183 0 0 0
2621 1 -9.159902 -4.078251 81.233183 0 0 0
2622 1 -9.638342 -2.76375 81.233183 0 0 0
2725 3 -4.347403 -0.067317 47.072547 0 0 0
2730 3 -5.510903 -0.160117 45.146347 0 0 0
2734 3 -2.167103 -0.054917 46.065346999999996 0 0 0
2736 3 -3.488803 -0.486717 46.066247 0 0 0
2737 3 -4.200603 -0.544417 44.876647 0 0 0
2740 3 -3.600603 -0.159417 43.682947 0 0 0
2777 2 -0.679562 -5.41518 52.036351999999994 0 0 0
2778 2 -1.100362 -4.12628 51.726252 0 0 0
2780 2 -0.276662 -3.03938 51.992052 0 0 0
2781 2 -0.173562 -2.00688 51.072751999999994 0 0 0
2782 2 -1.820662 -4.18658 50.541551999999996 0 0 0
2783 2 -1.711962 -3.15168 49.615452 0 0 0
2784 2 -0.883962 -2.06358 49.880752 0 0 0
2786 2 -0.332262 -7.30508 50.604552 0 0 0
2788 2 -1.137862 -6.25768 51.035052 0 0 0
2789 2 -1.849462 -5.50678 50.110952 0 0 0
2790 2 -0.243562 -7.59878 49.251152 0 0 0
2791 2 -0.943462 -6.83658 48.323851999999995 0 0 0
2792 2 -1.753562 -5.78758 48.753052 0 0 0
2801 2 -0.772062 -5.17098 46.842952 0 0 0
2802 2 -0.337262 -6.46208 47.132552 0 0 0
2805 2 -0.741862 -2.53818 47.703052 0 0 0
2806 2 -1.637762 -3.43918 48.259752 0 0 0
2807 2 -1.654862 -4.75558 47.830152 0 0 0
2811 2 -0.283562 -1.67408 48.691752 0 0 0
2881 2 -1.802627 -2.108044 60.237862 0 0 0
2882 2 -0.931327 -2.522044 59.242262 0 0 0
2883 2 -2.690527 -3.008444 60.81836199999999 0 0 0
2884 2 -0.957327 -3.842044 58.815861999999996 0 0 0
2885 2 -0.865727 -4.132144 57.457462 0 0 0