# LAMMPS data file written by OVITO Basic 3.3.5
920 atoms
2 atom types
-100 100 xlo xhi
-100 100 ylo yhi
-2.331251 38.891558 zlo zhi

Masses

1 12.0107  # CNT
2 12.0107  # C60

Atoms  # atomic

1 1 6.684508 0.0 0.0
2 1 6.538435 -1.389787 0.0
3 1 5.40788 -3.929055 0.0
4 1 4.472809 -4.967557 0.0
5 1 2.065626 -6.357345 0.0
6 1 0.698721 -6.647889 0.0
7 1 -2.065626 -6.357345 0.0
8 1 -3.342254 -5.788953 0.0
9 1 -5.40788 -3.929055 0.0
10 1 -6.106602 -2.718834 0.0
11 1 -6.684508 0.0 0.0
12 1 -6.538435 1.389787 0.0
13 1 -5.40788 3.929055 0.0
14 1 -4.472809 4.967557 0.0
15 1 -2.065626 6.357345 0.0
16 1 -0.698721 6.647889 0.0
17 1 2.065626 6.357345 0.0
18 1 3.342254 5.788953 0.0
19 1 5.40788 3.929055 0.0
20 1 6.106602 2.718834 0.0
21 1 6.357345 -2.065626 1.212436
22 1 5.788953 -3.342254 1.212436
23 1 3.929055 -5.40788 1.212436
24 1 2.718834 -6.106602 1.212436
25 1 0.0 -6.684508 1.212436
26 1 -1.389787 -6.538435 1.212436
27 1 -3.929055 -5.40788 1.212436
28 1 -4.967557 -4.472809 1.212436
29 1 -6.357345 -2.065626 1.212436
30 1 -6.647889 -0.698721 1.212436
31 1 -6.357345 2.065626 1.212436
32 1 -5.788953 3.342254 1.212436
33 1 -3.929055 5.40788 1.212436
34 1 -2.718834 6.106602 1.212436
35 1 0.0 6.684508 1.212436
36 1 1.389787 6.538435 1.212436
37 1 3.929055 5.40788 1.212436
38 1 4.967557 4.472809 1.212436
39 1 6.357345 2.065626 1.212436
40 1 6.647889 0.698721 1.212436
41 1 5.40788 -3.929055 2.424871
42 1 4.472809 -4.967557 2.424871
43 1 2.065626 -6.357345 2.424871
44 1 0.698721 -6.647889 2.424871
45 1 -2.065626 -6.357345 2.424871
46 1 -3.342254 -5.788953 2.424871
47 1 -5.40788 -3.929055 2.424871
48 1 -6.106602 -2.718834 2.424871
49 1 -6.684508 0.0 2.424871
50 1 -6.538435 1.389787 2.424871
51 1 -5.40788 3.929055 2.424871
52 1 -4.472809 4.967557 2.424871
53 1 -2.065626 6.357345 2.424871
54 1 -0.698721 6.647889 2.424871
55 1 2.065626 6.357345 2.424871
56 1 3.342254 5.788953 2.424871
57 1 5.40788 3.929055 2.424871
58 1 6.106602 2.718834 2.424871
59 1 6.684508 0.0 2.424871
60 1 6.538435 -1.389787 2.424871
61 1 3.929055 -5.40788 3.637307
62 1 2.718834 -6.106602 3.637307
63 1 0.0 -6.684508 3.637307
64 1 -1.389787 -6.538435 3.637307
65 1 -3.929055 -5.40788 3.637307
66 1 -4.967557 -4.472809 3.637307
67 1 -6.357345 -2.065626 3.637307
68 1 -6.647889 -0.698721 3.637307
69 1 -6.357345 2.065626 3.637307
70 1 -5.788953 3.342254 3.637307
71 1 -3.929055 5.40788 3.637307
72 1 -2.718834 6.106602 3.637307
73 1 0.0 6.684508 3.637307
74 1 1.389787 6.538435 3.637307
75 1 3.929055 5.40788 3.637307
76 1 4.967557 4.472809 3.637307
77 1 6.357345 2.065626 3.637307
78 1 6.647889 0.698721 3.637307
79 1 6.357345 -2.065626 3.637307
80 1 5.788953 -3.342254 3.637307
81 1 2.065626 -6.357345 4.849742
82 1 0.698721 -6.647889 4.849742
83 1 -2.065626 -6.357345 4.849742
84 1 -3.342254 -5.788953 4.849742
85 1 -5.40788 -3.929055 4.849742
86 1 -6.106602 -2.718834 4.849742
87 1 -6.684508 0.0 4.849742
88 1 -6.538435 1.389787 4.849742
89 1 -5.40788 3.929055 4.849742
90 1 -4.472809 4.967557 4.849742
91 1 -2.065626 6.357345 4.849742
92 1 -0.698721 6.647889 4.849742
93 1 2.065626 6.357345 4.849742
94 1 3.342254 5.788953 4.849742
95 1 5.40788 3.929055 4.849742
96 1 6.106602 2.718834 4.849742
97 1 6.684508 0.0 4.849742
98 1 6.538435 -1.389787 4.849742
99 1 5.40788 -3.929055 4.849742
100 1 4.472809 -4.967557 4.849742
101 1 0.0 -6.684508 6.062178
102 1 -1.389787 -6.538435 6.062178
103 1 -3.929055 -5.40788 6.062178
104 1 -4.967557 -4.472809 6.062178
105 1 -6.357345 -2.065626 6.062178
106 1 -6.647889 -0.698721 6.062178
107 1 -6.357345 2.065626 6.062178
108 1 -5.788953 3.342254 6.062178
109 1 -3.929055 5.40788 6.062178
110 1 -2.718834 6.106602 6.062178
111 1 0.0 6.684508 6.062178
112 1 1.389787 6.538435 6.062178
113 1 3.929055 5.40788 6.062178
114 1 4.967557 4.472809 6.062178
115 1 6.357345 2.065626 6.062178
116 1 6.647889 0.698721 6.062178
117 1 6.357345 -2.065626 6.062178
118 1 5.788953 -3.342254 6.062178
119 1 3.929055 -5.40788 6.062178
120 1 2.718834 -6.106602 6.062178
121 1 -2.065626 -6.357345 7.274613
122 1 -3.342254 -5.788953 7.274613
123 1 -5.40788 -3.929055 7.274613
124 1 -6.106602 -2.718834 7.274613
125 1 -6.684508 0.0 7.274613
126 1 -6.538435 1.389787 7.274613
127 1 -5.40788 3.929055 7.274613
128 1 -4.472809 4.967557 7.274613
129 1 -2.065626 6.357345 7.274613
130 1 -0.698721 6.647889 7.274613
131 1 2.065626 6.357345 7.274613
132 1 3.342254 5.788953 7.274613
133 1 5.40788 3.929055 7.274613
134 1 6.106602 2.718834 7.274613
135 1 6.684508 0.0 7.274613
136 1 6.538435 -1.389787 7.274613
137 1 5.40788 -3.929055 7.274613
138 1 4.472809 -4.967557 7.274613
139 1 2.065626 -6.357345 7.274613
140 1 0.698721 -6.647889 7.274613
141 1 -3.929055 -5.40788 8.487049
142 1 -4.967557 -4.472809 8.487049
143 1 -6.357345 -2.065626 8.487049
144 1 -6.647889 -0.698721 8.487049
145 1 -6.357345 2.065626 8.487049
146 1 -5.788953 3.342254 8.487049
147 1 -3.929055 5.40788 8.487049
148 1 -2.718834 6.106602 8.487049
149 1 0.0 6.684508 8.487049
150 1 1.389787 6.538435 8.487049
151 1 3.929055 5.40788 8.487049
152 1 4.967557 4.472809 8.487049
153 1 6.357345 2.065626 8.487049
154 1 6.647889 0.698721 8.487049
155 1 6.357345 -2.065626 8.487049
156 1 5.788953 -3.342254 8.487049
157 1 3.929055 -5.40788 8.487049
158 1 2.718834 -6.106602 8.487049
159 1 0.0 -6.684508 8.487049
160 1 -1.389787 -6.538435 8.487049
161 1 -5.40788 -3.929055 9.699485
162 1 -6.106602 -2.718834 9.699485
163 1 -6.684508 0.0 9.699485
164 1 -6.538435 1.389787 9.699485
165 1 -5.40788 3.929055 9.699485
166 1 -4.472809 4.967557 9.699485
167 1 -2.065626 6.357345 9.699485
168 1 -0.698721 6.647889 9.699485
169 1 2.065626 6.357345 9.699485
170 1 3.342254 5.788953 9.699485
171 1 5.40788 3.929055 9.699485
172 1 6.106602 2.718834 9.699485
173 1 6.684508 0.0 9.699485
174 1 6.538435 -1.389787 9.699485
175 1 5.40788 -3.929055 9.699485
176 1 4.472809 -4.967557 9.699485
177 1 2.065626 -6.357345 9.699485
178 1 0.698721 -6.647889 9.699485
179 1 -2.065626 -6.357345 9.699485
180 1 -3.342254 -5.788953 9.699485
181 1 -6.357345 -2.065626 10.91192
182 1 -6.647889 -0.698721 10.91192
183 1 -6.357345 2.065626 10.91192
184 1 -5.788953 3.342254 10.91192
185 1 -3.929055 5.40788 10.91192
186 1 -2.718834 6.106602 10.91192
187 1 0.0 6.684508 10.91192
188 1 1.389787 6.538435 10.91192
189 1 3.929055 5.40788 10.91192
190 1 4.967557 4.472809 10.91192
191 1 6.357345 2.065626 10.91192
192 1 6.647889 0.698721 10.91192
193 1 6.357345 -2.065626 10.91192
194 1 5.788953 -3.342254 10.91192
195 1 3.929055 -5.40788 10.91192
196 1 2.718834 -6.106602 10.91192
197 1 0.0 -6.684508 10.91192
198 1 -1.389787 -6.538435 10.91192
199 1 -3.929055 -5.40788 10.91192
200 1 -4.967557 -4.472809 10.91192
201 1 -6.684508 0.0 12.124356
202 1 -6.538435 1.389787 12.124356
203 1 -5.40788 3.929055 12.124356
204 1 -4.472809 4.967557 12.124356
205 1 -2.065626 6.357345 12.124356
206 1 -0.698721 6.647889 12.124356
207 1 2.065626 6.357345 12.124356
208 1 3.342254 5.788953 12.124356
209 1 5.40788 3.929055 12.124356
210 1 6.106602 2.718834 12.124356
211 1 6.684508 0.0 12.124356
212 1 6.538435 -1.389787 12.124356
213 1 5.40788 -3.929055 12.124356
214 1 4.472809 -4.967557 12.124356
215 1 2.065626 -6.357345 12.124356
216 1 0.698721 -6.647889 12.124356
217 1 -2.065626 -6.357345 12.124356
218 1 -3.342254 -5.788953 12.124356
219 1 -5.40788 -3.929055 12.124356
220 1 -6.106602 -2.718834 12.124356
221 1 -6.357345 2.065626 13.336791
222 1 -5.788953 3.342254 13.336791
223 1 -3.929055 5.40788 13.336791
224 1 -2.718834 6.106602 13.336791
225 1 0.0 6.684508 13.336791
226 1 1.389787 6.538435 13.336791
227 1 3.929055 5.40788 13.336791
228 1 4.967557 4.472809 13.336791
229 1 6.357345 2.065626 13.336791
230 1 6.647889 0.698721 13.336791
231 1 6.357345 -2.065626 13.336791
232 1 5.788953 -3.342254 13.336791
233 1 3.929055 -5.40788 13.336791
234 1 2.718834 -6.106602 13.336791
235 1 0.0 -6.684508 13.336791
236 1 -1.389787 -6.538435 13.336791
237 1 -3.929055 -5.40788 13.336791
238 1 -4.967557 -4.472809 13.336791
239 1 -6.357345 -2.065626 13.336791
240 1 -6.647889 -0.698721 13.336791
241 1 -5.40788 3.929055 14.549227
242 1 -4.472809 4.967557 14.549227
243 1 -2.065626 6.357345 14.549227
244 1 -0.698721 6.647889 14.549227
245 1 2.065626 6.357345 14.549227
246 1 3.342254 5.788953 14.549227
247 1 5.40788 3.929055 14.549227
248 1 6.106602 2.718834 14.549227
249 1 6.684508 0.0 14.549227
250 1 6.538435 -1.389787 14.549227
251 1 5.40788 -3.929055 14.549227
252 1 4.472809 -4.967557 14.549227
253 1 2.065626 -6.357345 14.549227
254 1 0.698721 -6.647889 14.549227
255 1 -2.065626 -6.357345 14.549227
256 1 -3.342254 -5.788953 14.549227
257 1 -5.40788 -3.929055 14.549227
258 1 -6.106602 -2.718834 14.549227
259 1 -6.684508 0.0 14.549227
260 1 -6.538435 1.389787 14.549227
261 1 -3.929055 5.40788 15.761662
262 1 -2.718834 6.106602 15.761662
263 1 0.0 6.684508 15.761662
264 1 1.389787 6.538435 15.761662
265 1 3.929055 5.40788 15.761662
266 1 4.967557 4.472809 15.761662
267 1 6.357345 2.065626 15.761662
268 1 6.647889 0.698721 15.761662
269 1 6.357345 -2.065626 15.761662
270 1 5.788953 -3.342254 15.761662
271 1 3.929055 -5.40788 15.761662
272 1 2.718834 -6.106602 15.761662
273 1 0.0 -6.684508 15.761662
274 1 -1.389787 -6.538435 15.761662
275 1 -3.929055 -5.40788 15.761662
276 1 -4.967557 -4.472809 15.761662
277 1 -6.357345 -2.065626 15.761662
278 1 -6.647889 -0.698721 15.761662
279 1 -6.357345 2.065626 15.761662
280 1 -5.788953 3.342254 15.761662
281 1 -2.065626 6.357345 16.974098
282 1 -0.698721 6.647889 16.974098
283 1 2.065626 6.357345 16.974098
284 1 3.342254 5.788953 16.974098
285 1 5.40788 3.929055 16.974098
286 1 6.106602 2.718834 16.974098
287 1 6.684508 0.0 16.974098
288 1 6.538435 -1.389787 16.974098
289 1 5.40788 -3.929055 16.974098
290 1 4.472809 -4.967557 16.974098
291 1 2.065626 -6.357345 16.974098
292 1 0.698721 -6.647889 16.974098
293 1 -2.065626 -6.357345 16.974098
294 1 -3.342254 -5.788953 16.974098
295 1 -5.40788 -3.929055 16.974098
296 1 -6.106602 -2.718834 16.974098
297 1 -6.684508 0.0 16.974098
298 1 -6.538435 1.389787 16.974098
299 1 -5.40788 3.929055 16.974098
300 1 -4.472809 4.967557 16.974098
301 1 0.0 6.684508 18.186533
302 1 1.389787 6.538435 18.186533
303 1 3.929055 5.40788 18.186533
304 1 4.967557 4.472809 18.186533
305 1 6.357345 2.065626 18.186533
306 1 6.647889 0.698721 18.186533
307 1 6.357345 -2.065626 18.186533
308 1 5.788953 -3.342254 18.186533
309 1 3.929055 -5.40788 18.186533
310 1 2.718834 -6.106602 18.186533
311 1 0.0 -6.684508 18.186533
312 1 -1.389787 -6.538435 18.186533
313 1 -3.929055 -5.40788 18.186533
314 1 -4.967557 -4.472809 18.186533
315 1 -6.357345 -2.065626 18.186533
316 1 -6.647889 -0.698721 18.186533
317 1 -6.357345 2.065626 18.186533
318 1 -5.788953 3.342254 18.186533
319 1 -3.929055 5.40788 18.186533
320 1 -2.718834 6.106602 18.186533
321 1 2.065626 6.357345 19.398969
322 1 3.342254 5.788953 19.398969
323 1 5.40788 3.929055 19.398969
324 1 6.106602 2.718834 19.398969
325 1 6.684508 0.0 19.398969
326 1 6.538435 -1.389787 19.398969
327 1 5.40788 -3.929055 19.398969
328 1 4.472809 -4.967557 19.398969
329 1 2.065626 -6.357345 19.398969
330 1 0.698721 -6.647889 19.398969
331 1 -2.065626 -6.357345 19.398969
332 1 -3.342254 -5.788953 19.398969
333 1 -5.40788 -3.929055 19.398969
334 1 -6.106602 -2.718834 19.398969
335 1 -6.684508 0.0 19.398969
336 1 -6.538435 1.389787 19.398969
337 1 -5.40788 3.929055 19.398969
338 1 -4.472809 4.967557 19.398969
339 1 -2.065626 6.357345 19.398969
340 1 -0.698721 6.647889 19.398969
341 1 3.929055 5.40788 20.611405
342 1 4.967557 4.472809 20.611405
343 1 6.357345 2.065626 20.611405
344 1 6.647889 0.698721 20.611405
345 1 6.357345 -2.065626 20.611405
346 1 5.788953 -3.342254 20.611405
347 1 3.929055 -5.40788 20.611405
348 1 2.718834 -6.106602 20.611405
349 1 0.0 -6.684508 20.611405
350 1 -1.389787 -6.538435 20.611405
351 1 -3.929055 -5.40788 20.611405
352 1 -4.967557 -4.472809 20.611405
353 1 -6.357345 -2.065626 20.611405
354 1 -6.647889 -0.698721 20.611405
355 1 -6.357345 2.065626 20.611405
356 1 -5.788953 3.342254 20.611405
357 1 -3.929055 5.40788 20.611405
358 1 -2.718834 6.106602 20.611405
359 1 0.0 6.684508 20.611405
360 1 1.389787 6.538435 20.611405
361 1 5.40788 3.929055 21.82384
362 1 6.106602 2.718834 21.82384
363 1 6.684508 0.0 21.82384
364 1 6.538435 -1.389787 21.82384
365 1 5.40788 -3.929055 21.82384
366 1 4.472809 -4.967557 21.82384
367 1 2.065626 -6.357345 21.82384
368 1 0.698721 -6.647889 21.82384
369 1 -2.065626 -6.357345 21.82384
370 1 -3.342254 -5.788953 21.82384
371 1 -5.40788 -3.929055 21.82384
372 1 -6.106602 -2.718834 21.82384
373 1 -6.684508 0.0 21.82384
374 1 -6.538435 1.389787 21.82384
375 1 -5.40788 3.929055 21.82384
376 1 -4.472809 4.967557 21.82384
377 1 -2.065626 6.357345 21.82384
378 1 -0.698721 6.647889 21.82384
379 1 2.065626 6.357345 21.82384
380 1 3.342254 5.788953 21.82384
381 1 6.357345 2.065626 23.036276
382 1 6.647889 0.698721 23.036276
383 1 6.357345 -2.065626 23.036276
384 1 5.788953 -3.342254 23.036276
385 1 3.929055 -5.40788 23.036276
386 1 2.718834 -6.106602 23.036276
387 1 0.0 -6.684508 23.036276
388 1 -1.389787 -6.538435 23.036276
389 1 -3.929055 -5.40788 23.036276
390 1 -4.967557 -4.472809 23.036276
391 1 -6.357345 -2.065626 23.036276
392 1 -6.647889 -0.698721 23.036276
393 1 -6.357345 2.065626 23.036276
394 1 -5.788953 3.342254 23.036276
395 1 -3.929055 5.40788 23.036276
396 1 -2.718834 6.106602 23.036276
397 1 0.0 6.684508 23.036276
398 1 1.389787 6.538435 23.036276
399 1 3.929055 5.40788 23.036276
400 1 4.967557 4.472809 23.036276
401 1 6.684508 0.0 24.248711
402 1 6.538435 -1.389787 24.248711
403 1 5.40788 -3.929055 24.248711
404 1 4.472809 -4.967557 24.248711
405 1 2.065626 -6.357345 24.248711
406 1 0.698721 -6.647889 24.248711
407 1 -2.065626 -6.357345 24.248711
408 1 -3.342254 -5.788953 24.248711
409 1 -5.40788 -3.929055 24.248711
410 1 -6.106602 -2.718834 24.248711
411 1 -6.684508 0.0 24.248711
412 1 -6.538435 1.389787 24.248711
413 1 -5.40788 3.929055 24.248711
414 1 -4.472809 4.967557 24.248711
415 1 -2.065626 6.357345 24.248711
416 1 -0.698721 6.647889 24.248711
417 1 2.065626 6.357345 24.248711
418 1 3.342254 5.788953 24.248711
419 1 5.40788 3.929055 24.248711
420 1 6.106602 2.718834 24.248711
421 1 6.357345 -2.065626 25.461147
422 1 5.788953 -3.342254 25.461147
423 1 3.929055 -5.40788 25.461147
424 1 2.718834 -6.106602 25.461147
425 1 0.0 -6.684508 25.461147
426 1 -1.389787 -6.538435 25.461147
427 1 -3.929055 -5.40788 25.461147
428 1 -4.967557 -4.472809 25.461147
429 1 -6.357345 -2.065626 25.461147
430 1 -6.647889 -0.698721 25.461147
431 1 -6.357345 2.065626 25.461147
432 1 -5.788953 3.342254 25.461147
433 1 -3.929055 5.40788 25.461147
434 1 -2.718834 6.106602 25.461147
435 1 0.0 6.684508 25.461147
436 1 1.389787 6.538435 25.461147
437 1 3.929055 5.40788 25.461147
438 1 4.967557 4.472809 25.461147
439 1 6.357345 2.065626 25.461147
440 1 6.647889 0.698721 25.461147
441 1 5.40788 -3.929055 26.673582
442 1 4.472809 -4.967557 26.673582
443 1 2.065626 -6.357345 26.673582
444 1 0.698721 -6.647889 26.673582
445 1 -2.065626 -6.357345 26.673582
446 1 -3.342254 -5.788953 26.673582
447 1 -5.40788 -3.929055 26.673582
448 1 -6.106602 -2.718834 26.673582
449 1 -6.684508 0.0 26.673582
450 1 -6.538435 1.389787 26.673582
451 1 -5.40788 3.929055 26.673582
452 1 -4.472809 4.967557 26.673582
453 1 -2.065626 6.357345 26.673582
454 1 -0.698721 6.647889 26.673582
455 1 2.065626 6.357345 26.673582
456 1 3.342254 5.788953 26.673582
457 1 5.40788 3.929055 26.673582
458 1 6.106602 2.718834 26.673582
459 1 6.684508 0.0 26.673582
460 1 6.538435 -1.389787 26.673582
461 1 3.929055 -5.40788 27.886018
462 1 2.718834 -6.106602 27.886018
463 1 0.0 -6.684508 27.886018
464 1 -1.389787 -6.538435 27.886018
465 1 -3.929055 -5.40788 27.886018
466 1 -4.967557 -4.472809 27.886018
467 1 -6.357345 -2.065626 27.886018
468 1 -6.647889 -0.698721 27.886018
469 1 -6.357345 2.065626 27.886018
470 1 -5.788953 3.342254 27.886018
471 1 -3.929055 5.40788 27.886018
472 1 -2.718834 6.106602 27.886018
473 1 0.0 6.684508 27.886018
474 1 1.389787 6.538435 27.886018
475 1 3.929055 5.40788 27.886018
476 1 4.967557 4.472809 27.886018
477 1 6.357345 2.065626 27.886018
478 1 6.647889 0.698721 27.886018
479 1 6.357345 -2.065626 27.886018
480 1 5.788953 -3.342254 27.886018
481 1 2.065626 -6.357345 29.098454
482 1 0.698721 -6.647889 29.098454
483 1 -2.065626 -6.357345 29.098454
484 1 -3.342254 -5.788953 29.098454
485 1 -5.40788 -3.929055 29.098454
486 1 -6.106602 -2.718834 29.098454
487 1 -6.684508 0.0 29.098454
488 1 -6.538435 1.389787 29.098454
489 1 -5.40788 3.929055 29.098454
490 1 -4.472809 4.967557 29.098454
491 1 -2.065626 6.357345 29.098454
492 1 -0.698721 6.647889 29.098454
493 1 2.065626 6.357345 29.098454
494 1 3.342254 5.788953 29.098454
495 1 5.40788 3.929055 29.098454
496 1 6.106602 2.718834 29.098454
497 1 6.684508 0.0 29.098454
498 1 6.538435 -1.389787 29.098454
499 1 5.40788 -3.929055 29.098454
500 1 4.472809 -4.967557 29.098454
501 1 0.0 -6.684508 30.310889
502 1 -1.389787 -6.538435 30.310889
503 1 -3.929055 -5.40788 30.310889
504 1 -4.967557 -4.472809 30.310889
505 1 -6.357345 -2.065626 30.310889
506 1 -6.647889 -0.698721 30.310889
507 1 -6.357345 2.065626 30.310889
508 1 -5.788953 3.342254 30.310889
509 1 -3.929055 5.40788 30.310889
510 1 -2.718834 6.106602 30.310889
511 1 0.0 6.684508 30.310889
512 1 1.389787 6.538435 30.310889
513 1 3.929055 5.40788 30.310889
514 1 4.967557 4.472809 30.310889
515 1 6.357345 2.065626 30.310889
516 1 6.647889 0.698721 30.310889
517 1 6.357345 -2.065626 30.310889
518 1 5.788953 -3.342254 30.310889
519 1 3.929055 -5.40788 30.310889
520 1 2.718834 -6.106602 30.310889
521 1 -2.065626 -6.357345 31.523325
522 1 -3.342254 -5.788953 31.523325
523 1 -5.40788 -3.929055 31.523325
524 1 -6.106602 -2.718834 31.523325
525 1 -6.684508 0.0 31.523325
526 1 -6.538435 1.389787 31.523325
527 1 -5.40788 3.929055 31.523325
528 1 -4.472809 4.967557 31.523325
529 1 -2.065626 6.357345 31.523325
530 1 -0.698721 6.647889 31.523325
531 1 2.065626 6.357345 31.523325
532 1 3.342254 5.788953 31.523325
533 1 5.40788 3.929055 31.523325
534 1 6.106602 2.718834 31.523325
535 1 6.684508 0.0 31.523325
536 1 6.538435 -1.389787 31.523325
537 1 5.40788 -3.929055 31.523325
538 1 4.472809 -4.967557 31.523325
539 1 2.065626 -6.357345 31.523325
540 1 0.698721 -6.647889 31.523325
541 1 -3.929055 -5.40788 32.73576
542 1 -4.967557 -4.472809 32.73576
543 1 -6.357345 -2.065626 32.73576
544 1 -6.647889 -0.698721 32.73576
545 1 -6.357345 2.065626 32.73576
546 1 -5.788953 3.342254 32.73576
547 1 -3.929055 5.40788 32.73576
548 1 -2.718834 6.106602 32.73576
549 1 0.0 6.684508 32.73576
550 1 1.389787 6.538435 32.73576
551 1 3.929055 5.40788 32.73576
552 1 4.967557 4.472809 32.73576
553 1 6.357345 2.065626 32.73576
554 1 6.647889 0.698721 32.73576
555 1 6.357345 -2.065626 32.73576
556 1 5.788953 -3.342254 32.73576
557 1 3.929055 -5.40788 32.73576
558 1 2.718834 -6.106602 32.73576
559 1 0.0 -6.684508 32.73576
560 1 -1.389787 -6.538435 32.73576
561 1 -5.40788 -3.929055 33.948196
562 1 -6.106602 -2.718834 33.948196
563 1 -6.684508 0.0 33.948196
564 1 -6.538435 1.389787 33.948196
565 1 -5.40788 3.929055 33.948196
566 1 -4.472809 4.967557 33.948196
567 1 -2.065626 6.357345 33.948196
568 1 -0.698721 6.647889 33.948196
569 1 2.065626 6.357345 33.948196
570 1 3.342254 5.788953 33.948196
571 1 5.40788 3.929055 33.948196
572 1 6.106602 2.718834 33.948196
573 1 6.684508 0.0 33.948196
574 1 6.538435 -1.389787 33.948196
575 1 5.40788 -3.929055 33.948196
576 1 4.472809 -4.967557 33.948196
577 1 2.065626 -6.357345 33.948196
578 1 0.698721 -6.647889 33.948196
579 1 -2.065626 -6.357345 33.948196
580 1 -3.342254 -5.788953 33.948196
581 1 -6.357345 -2.065626 35.160631
582 1 -6.647889 -0.698721 35.160631
583 1 -6.357345 2.065626 35.160631
584 1 -5.788953 3.342254 35.160631
585 1 -3.929055 5.40788 35.160631
586 1 -2.718834 6.106602 35.160631
587 1 0.0 6.684508 35.160631
588 1 1.389787 6.538435 35.160631
589 1 3.929055 5.40788 35.160631
590 1 4.967557 4.472809 35.160631
591 1 6.357345 2.065626 35.160631
592 1 6.647889 0.698721 35.160631
593 1 6.357345 -2.065626 35.160631
594 1 5.788953 -3.342254 35.160631
595 1 3.929055 -5.40788 35.160631
596 1 2.718834 -6.106602 35.160631
597 1 0.0 -6.684508 35.160631
598 1 -1.389787 -6.538435 35.160631
599 1 -3.929055 -5.40788 35.160631
600 1 -4.967557 -4.472809 35.160631
601 1 -6.684508 0.0 36.373067
602 1 -6.538435 1.389787 36.373067
603 1 -5.40788 3.929055 36.373067
604 1 -4.472809 4.967557 36.373067
605 1 -2.065626 6.357345 36.373067
606 1 -0.698721 6.647889 36.373067
607 1 2.065626 6.357345 36.373067
608 1 3.342254 5.788953 36.373067
609 1 5.40788 3.929055 36.373067
610 1 6.106602 2.718834 36.373067
611 1 6.684508 0.0 36.373067
612 1 6.538435 -1.389787 36.373067
613 1 5.40788 -3.929055 36.373067
614 1 4.472809 -4.967557 36.373067
615 1 2.065626 -6.357345 36.373067
616 1 0.698721 -6.647889 36.373067
617 1 -2.065626 -6.357345 36.373067
618 1 -3.342254 -5.788953 36.373067
619 1 -5.40788 -3.929055 36.373067
620 1 -6.106602 -2.718834 36.373067
621 1 -6.357345 2.065626 37.585503
622 1 -5.788953 3.342254 37.585503
623 1 -3.929055 5.40788 37.585503
624 1 -2.718834 6.106602 37.585503
625 1 0.0 6.684508 37.585503
626 1 1.389787 6.538435 37.585503
627 1 3.929055 5.40788 37.585503
628 1 4.967557 4.472809 37.585503
629 1 6.357345 2.065626 37.585503
630 1 6.647889 0.698721 37.585503
631 1 6.357345 -2.065626 37.585503
632 1 5.788953 -3.342254 37.585503
633 1 3.929055 -5.40788 37.585503
634 1 2.718834 -6.106602 37.585503
635 1 0.0 -6.684508 37.585503
636 1 -1.389787 -6.538435 37.585503
637 1 -3.929055 -5.40788 37.585503
638 1 -4.967557 -4.472809 37.585503
639 1 -6.357345 -2.065626 37.585503
640 1 -6.647889 -0.698721 37.585503
641 1 -5.40788 3.929055 38.797938
642 1 -4.472809 4.967557 38.797938
643 1 -2.065626 6.357345 38.797938
644 1 -0.698721 6.647889 38.797938
645 1 2.065626 6.357345 38.797938
646 1 3.342254 5.788953 38.797938
647 1 5.40788 3.929055 38.797938
648 1 6.106602 2.718834 38.797938
649 1 6.684508 0.0 38.797938
650 1 6.538435 -1.389787 38.797938
651 1 5.40788 -3.929055 38.797938
652 1 4.472809 -4.967557 38.797938
653 1 2.065626 -6.357345 38.797938
654 1 0.698721 -6.647889 38.797938
655 1 -2.065626 -6.357345 38.797938
656 1 -3.342254 -5.788953 38.797938
657 1 -5.40788 -3.929055 38.797938
658 1 -6.106602 -2.718834 38.797938
659 1 -6.684508 0.0 38.797938
660 1 -6.538435 1.389787 38.797938
661 1 -3.929055 5.40788 40.010374
662 1 -2.718834 6.106602 40.010374
663 1 0.0 6.684508 40.010374
664 1 1.389787 6.538435 40.010374
665 1 3.929055 5.40788 40.010374
666 1 4.967557 4.472809 40.010374
667 1 6.357345 2.065626 40.010374
668 1 6.647889 0.698721 40.010374
669 1 6.357345 -2.065626 40.010374
670 1 5.788953 -3.342254 40.010374
671 1 3.929055 -5.40788 40.010374
672 1 2.718834 -6.106602 40.010374
673 1 0.0 -6.684508 40.010374
674 1 -1.389787 -6.538435 40.010374
675 1 -3.929055 -5.40788 40.010374
676 1 -4.967557 -4.472809 40.010374
677 1 -6.357345 -2.065626 40.010374
678 1 -6.647889 -0.698721 40.010374
679 1 -6.357345 2.065626 40.010374
680 1 -5.788953 3.342254 40.010374
681 2 2.168762 0.584815 2.595833
682 2 3.040062 0.170815 1.600233
683 2 1.280862 -0.315585 3.176333
684 2 3.014062 -1.149185 1.173833
685 2 3.105662 -1.439285 -0.184567
686 2 3.152562 1.204815 0.676633
687 2 3.245062 0.909115 -0.677467
688 2 3.221462 -0.408085 -1.112267
689 2 -0.437038 1.346915 3.135533
690 2 0.438562 2.256015 2.562633
691 2 -0.027338 0.057515 3.446333
692 2 1.746462 1.873215 2.291433
693 2 2.354162 2.261815 1.107433
694 2 -0.261038 3.021015 1.641033
695 2 0.339662 3.399615 0.445733
696 2 1.653862 3.022015 0.179133
697 2 -2.088038 -0.828285 2.603933
698 2 -2.508838 0.460615 2.293833
699 2 -0.842638 -1.030985 3.182233
700 2 -1.685138 1.547515 2.559633
701 2 -1.582038 2.580015 1.640333
702 2 -3.229138 0.400315 1.109133
703 2 -3.120438 1.435215 0.183033
704 2 -2.292438 2.523315 0.448333
705 2 -0.488538 -2.919085 1.744933
706 2 -1.740738 -2.718185 1.172133
707 2 -0.037038 -2.074185 2.753733
708 2 -2.546338 -1.670785 1.602633
709 2 -3.257938 -0.919885 0.678533
710 2 -1.652038 -3.011885 -0.181267
711 2 -2.351938 -2.249685 -1.108567
712 2 -3.162038 -1.200685 -0.679367
713 2 2.138662 -2.061085 1.744233
714 2 1.691762 -2.906685 0.737733
715 2 1.280762 -1.642385 2.751933
716 2 0.370062 -3.338485 0.738633
717 2 -0.341738 -3.396185 -0.450967
718 2 2.291162 -2.530785 -0.455567
719 2 1.581262 -2.577585 -1.649567
720 2 0.258262 -3.011185 -1.644667
721 2 -2.180538 -0.584085 -2.589467
722 2 -1.745738 -1.875185 -2.299867
723 2 -0.436238 -2.252685 -2.576067
724 2 -1.279238 0.313115 -3.158667
725 2 -2.150338 2.048715 -1.729367
726 2 -3.046238 1.147715 -1.172667
727 2 -3.063338 -0.168685 -1.602267
728 2 -1.263838 1.634915 -2.718667
729 2 0.506162 2.930315 -1.733367
730 2 -0.376538 3.350315 -0.742867
731 2 -1.692038 2.912815 -0.740667
732 2 0.054362 2.067215 -2.727067
733 2 2.099862 0.828215 -2.596667
734 2 2.553962 1.686515 -1.602267
735 2 1.761162 2.739415 -1.173967
736 2 0.844262 1.014815 -3.170167
737 2 0.448362 -1.355285 -3.157667
738 2 1.700562 -1.554285 -2.582367
739 2 2.520662 -0.468085 -2.308667
740 2 0.024062 -0.070285 -3.450067
741 2 2.168762 0.584815 12.892233
742 2 3.040062 0.170815 11.896633
743 2 1.280862 -0.315585 13.472733
744 2 3.014062 -1.149185 11.470233
745 2 3.105662 -1.439285 10.111833
746 2 3.152562 1.204815 10.973033
747 2 3.245062 0.909115 9.618933
748 2 3.221462 -0.408085 9.184133
749 2 -0.437038 1.346915 13.431933
750 2 0.438562 2.256015 12.859033
751 2 -0.027338 0.057515 13.742733
752 2 1.746462 1.873215 12.587833
753 2 2.354162 2.261815 11.403833
754 2 -0.261038 3.021015 11.937433
755 2 0.339662 3.399615 10.742133
756 2 1.653862 3.022015 10.475533
757 2 -2.088038 -0.828285 12.900333
758 2 -2.508838 0.460615 12.590233
759 2 -0.842638 -1.030985 13.478633
760 2 -1.685138 1.547515 12.856033
761 2 -1.582038 2.580015 11.936733
762 2 -3.229138 0.400315 11.405533
763 2 -3.120438 1.435215 10.479433
764 2 -2.292438 2.523315 10.744733
765 2 -0.488538 -2.919085 12.041333
766 2 -1.740738 -2.718185 11.468533
767 2 -0.037038 -2.074185 13.050133
768 2 -2.546338 -1.670785 11.899033
769 2 -3.257938 -0.919885 10.974933
770 2 -1.652038 -3.011885 10.115133
771 2 -2.351938 -2.249685 9.187833
772 2 -3.162038 -1.200685 9.617033
773 2 2.138662 -2.061085 12.040633
774 2 1.691762 -2.906685 11.034133
775 2 1.280762 -1.642385 13.048333
776 2 0.370062 -3.338485 11.035033
777 2 -0.341738 -3.396185 9.845433
778 2 2.291162 -2.530785 9.840833
779 2 1.581262 -2.577585 8.646833
780 2 0.258262 -3.011185 8.651733
781 2 -2.180538 -0.584085 7.706933
782 2 -1.745738 -1.875185 7.996533
783 2 -0.436238 -2.252685 7.720333
784 2 -1.279238 0.313115 7.137733
785 2 -2.150338 2.048715 8.567033
786 2 -3.046238 1.147715 9.123733
787 2 -3.063338 -0.168685 8.694133
788 2 -1.263838 1.634915 7.577733
789 2 0.506162 2.930315 8.563033
790 2 -0.376538 3.350315 9.553533
791 2 -1.692038 2.912815 9.555733
792 2 0.054362 2.067215 7.569333
793 2 2.099862 0.828215 7.699733
794 2 2.553962 1.686515 8.694133
795 2 1.761162 2.739415 9.122433
796 2 0.844262 1.014815 7.126233
797 2 0.448362 -1.355285 7.138733
798 2 1.700562 -1.554285 7.714033
799 2 2.520662 -0.468085 7.987733
800 2 0.024062 -0.070285 6.846333
801 2 2.168762 0.584815 23.188633
802 2 3.040062 0.170815 22.193033
803 2 1.280862 -0.315585 23.769133
804 2 3.014062 -1.149185 21.766633
805 2 3.105662 -1.439285 20.408233
806 2 3.152562 1.204815 21.269433
807 2 3.245062 0.909115 19.915333
808 2 3.221462 -0.408085 19.480533
809 2 -0.437038 1.346915 23.728333
810 2 0.438562 2.256015 23.155433
811 2 -0.027338 0.057515 24.039133
812 2 1.746462 1.873215 22.884233
813 2 2.354162 2.261815 21.700233
814 2 -0.261038 3.021015 22.233833
815 2 0.339662 3.399615 21.038533
816 2 1.653862 3.022015 20.771933
817 2 -2.088038 -0.828285 23.196733
818 2 -2.508838 0.460615 22.886633
819 2 -0.842638 -1.030985 23.775033
820 2 -1.685138 1.547515 23.152433
821 2 -1.582038 2.580015 22.233133
822 2 -3.229138 0.400315 21.701933
823 2 -3.120438 1.435215 20.775833
824 2 -2.292438 2.523315 21.041133
825 2 -0.488538 -2.919085 22.337733
826 2 -1.740738 -2.718185 21.764933
827 2 -0.037038 -2.074185 23.346533
828 2 -2.546338 -1.670785 22.195433
829 2 -3.257938 -0.919885 21.271333
830 2 -1.652038 -3.011885 20.411533
831 2 -2.351938 -2.249685 19.484233
832 2 -3.162038 -1.200685 19.913433
833 2 2.138662 -2.061085 22.337033
834 2 1.691762 -2.906685 21.330533
835 2 1.280762 -1.642385 23.344733
836 2 0.370062 -3.338485 21.331433
837 2 -0.341738 -3.396185 20.141833
838 2 2.291162 -2.530785 20.137233
839 2 1.581262 -2.577585 18.943233
840 2 0.258262 -3.011185 18.948133
841 2 -2.180538 -0.584085 18.003333
842 2 -1.745738 -1.875185 18.292933
843 2 -0.436238 -2.252685 18.016733
844 2 -1.279238 0.313115 17.434133
845 2 -2.150338 2.048715 18.863433
846 2 -3.046238 1.147715 19.420133
847 2 -3.063338 -0.168685 18.990533
848 2 -1.263838 1.634915 17.874133
849 2 0.506162 2.930315 18.859433
850 2 -0.376538 3.350315 19.849933
851 2 -1.692038 2.912815 19.852133
852 2 0.054362 2.067215 17.865733
853 2 2.099862 0.828215 17.996133
854 2 2.553962 1.686515 18.990533
855 2 1.761162 2.739415 19.418833
856 2 0.844262 1.014815 17.422633
857 2 0.448362 -1.355285 17.435133
858 2 1.700562 -1.554285 18.010433
859 2 2.520662 -0.468085 18.284133
860 2 0.024062 -0.070285 17.142733
861 2 2.168762 0.584815 33.485033
862 2 3.040062 0.170815 32.489433
863 2 1.280862 -0.315585 34.065533
864 2 3.014062 -1.149185 32.063033
865 2 3.105662 -1.439285 30.704633
866 2 3.152562 1.204815 31.565833
867 2 3.245062 0.909115 30.211733
868 2 3.221462 -0.408085 29.776933
869 2 -0.437038 1.346915 34.024733
870 2 0.438562 2.256015 33.451833
871 2 -0.027338 0.057515 34.335533
872 2 1.746462 1.873215 33.180633
873 2 2.354162 2.261815 31.996633
874 2 -0.261038 3.021015 32.530233
875 2 0.339662 3.399615 31.334933
876 2 1.653862 3.022015 31.068333
877 2 -2.088038 -0.828285 33.493133
878 2 -2.508838 0.460615 33.183033
879 2 -0.842638 -1.030985 34.071433
880 2 -1.685138 1.547515 33.448833