LAMMPS (2 Aug 2023 - Update 3)
OMP_NUM_THREADS environment is not set. Defaulting to 1 thread. (src/comm.cpp:98)
  using 1 OpenMP thread(s) per MPI task
Reading data file ...
  orthogonal box = (-100 -100 -2.331251) to (100 100 38.891558)
  3 by 4 by 1 MPI processor grid
  reading atoms ...
  920 atoms
  read_data CPU = 0.005 seconds
Replication is creating a 1x1x17 = 17 times larger system...
  orthogonal box = (-100 -100 -2.331251) to (100 100 698.4565)
  1 by 2 by 6 MPI processor grid
  15640 atoms
  replicate CPU = 0.002 seconds
System init for write_data ...
WARNING: Communication cutoff is 0.0. No ghost atoms will be generated. Atoms may get lost. (src/comm_brick.cpp:210)
Reading airebo potential file CH.airebo with DATE: 2011-10-25
Reading airebo potential file CH.airebo with DATE: 2011-10-25
Neighbor list info ...
  update: every = 1 steps, delay = 0 steps, check = yes
  max neighbors/atom: 2000, page size: 100000
  master list distance cutoff = 13.2
  ghost atom cutoff = 13.2
  binsize = 6.6, bins = 31 31 107
  5 neighbor lists, perpetual/occasional/extra = 5 0 0
  (1) pair airebo, perpetual, skip from (4)
      attributes: full, newton on, ghost
      pair build: skip/ghost
      stencil: none
      bin: none
  (2) pair airebo, perpetual, skip from (4)
      attributes: full, newton on, ghost
      pair build: skip/ghost
      stencil: none
      bin: none
  (3) pair lj/cut, perpetual, skip from (5)
      attributes: half, newton on, cut 13
      pair build: skip
      stencil: none
      bin: none
  (4) neighbor class addition, perpetual
      attributes: full, newton on, ghost
      pair build: full/bin/ghost
      stencil: full/ghost/bin/3d
      bin: standard
  (5) neighbor class addition, perpetual
      attributes: half, newton on, cut 13
      pair build: half/bin/atomonly/newton
      stencil: half/bin/3d
      bin: standard
Setting up sd style minimization ...
  Unit style    : metal
  Current step  : 0
Per MPI rank memory allocation (min/avg/max) = 12.98 | 13.26 | 13.36 Mbytes
   Step          Temp          E_pair         E_mol          TotEng         Press     
         0   0             -113396.64      0             -113396.64      322.36972    
         4   0             -113695.34      0             -113695.34      67.774962    
Loop time of 0.211943 on 12 procs for 4 steps with 15640 atoms

98.8% CPU use with 12 MPI tasks x 1 OpenMP threads

Minimization stats:
  Stopping criterion = energy tolerance
  Energy initial, next-to-last, final = 
     -113396.638312882  -113688.459530442  -113695.335084414
  Force two-norm initial, final = 179.89488 27.390974
  Force max component initial, final = 3.4211508 0.48894053
  Final line search alpha, max atom move = 0.14095332 0.068917792
  Iterations, force evaluations = 4 8

MPI task timing breakdown:
Section |  min time  |  avg time  |  max time  |%varavg| %total
---------------------------------------------------------------
Pair    | 0.19946    | 0.20387    | 0.20958    |   0.7 | 96.19
Neigh   | 0          | 0          | 0          |   0.0 |  0.00
Comm    | 0.0011949  | 0.0061238  | 0.011165   |   4.3 |  2.89
Output  | 0          | 0          | 0          |   0.0 |  0.00
Modify  | 0          | 0          | 0          |   0.0 |  0.00
Other   |            | 0.001944   |            |       |  0.92

Nlocal:        1303.33 ave        1354 max        1252 min
Histogram: 6 0 0 0 0 0 0 0 0 6
Nghost:           1890 ave        1943 max        1834 min
Histogram: 4 2 0 0 0 0 0 0 2 4
Neighs:              0 ave           0 max           0 min
Histogram: 12 0 0 0 0 0 0 0 0 0

Total # of neighbors = 0
Ave neighs/atom = 0
Neighbor list builds = 0
Dangerous builds = 0
Setting up Verlet run ...
  Unit style    : metal
  Current step  : 4
  Time step     : 0.001
Per MPI rank memory allocation (min/avg/max) = 13.98 | 14.17 | 14.37 Mbytes
   Step          Temp          E_pair         E_mol          TotEng         Press          Volume    
         4   300           -113695.34      0             -113088.89      90.883234      28031510     
Loop time of 5.44709e-05 on 12 procs for 0 steps with 15640 atoms

78.3% CPU use with 12 MPI tasks x 1 OpenMP threads

MPI task timing breakdown:
Section |  min time  |  avg time  |  max time  |%varavg| %total
---------------------------------------------------------------
Pair    | 0          | 0          | 0          |   0.0 |  0.00
Neigh   | 0          | 0          | 0          |   0.0 |  0.00
Comm    | 0          | 0          | 0          |   0.0 |  0.00
Output  | 0          | 0          | 0          |   0.0 |  0.00
Modify  | 0          | 0          | 0          |   0.0 |  0.00
Other   |            | 5.447e-05  |            |       |100.00

Nlocal:        1303.33 ave        1307 max        1300 min
Histogram: 3 0 1 0 3 0 0 3 0 2
Nghost:        1889.67 ave        1897 max        1881 min
Histogram: 1 2 1 0 1 3 0 0 1 3
Neighs:              0 ave           0 max           0 min
Histogram: 12 0 0 0 0 0 0 0 0 0

Total # of neighbors = 0
Ave neighs/atom = 0
Neighbor list builds = 0
Dangerous builds = 0
WARNING: New thermo_style command, previous thermo_modify settings will be lost (src/output.cpp:903)
WARNING: Dump 2 includes no atom IDs and is not sorted by ID. This may complicate post-processing tasks or visualization (src/dump.cpp:221)
Setting up Verlet run ...
  Unit style    : metal
  Current step  : 0
  Time step     : 0.001
Per MPI rank memory allocation (min/avg/max) = 15.48 | 15.67 | 15.87 Mbytes
   Step         PotEng         KinEng         TotEng           Lx             Ly             Lz      
         0  -113695.34      606.44982     -113088.89      200            200            700.78775    
       100  -113343.34      296.66809     -113046.67      200.00362      200.00563      701.13815    
       200  -113373.23      382.98387     -112990.24      199.99837      200.00415      701.48854    
       300  -113316.66      393.89227     -112922.77      199.99874      200.01021      701.83893    
       400  -113278.66      429.25753     -112849.4       199.99463      200.01155      702.18933    
       500  -113252.07      479.92878     -112772.14      199.99256      200.01369      702.53972    
       600  -113214.8       520.52647     -112694.27      199.99406      200.01645      702.89012    
       700  -113185.1       565.45499     -112619.65      199.99027      200.01227      703.24051    
       800  -113145.88      593.11722     -112552.76      199.99525      200.01674      703.5909     
       900  -113131.74      630.90695     -112500.83      199.9889       200.01177      703.9413     
      1000  -113108.33      635.19225     -112473.14      199.99071      200.01845      704.29169    
      1100  -113107.19      627.84186     -112479.35      199.98186      200.01668      704.64209    
      1200  -113120.22      612.96178     -112507.25      199.98086      200.02295      704.99248    
      1300  -113128.28      602.08847     -112526.19      199.97434      200.02056      705.34287    
      1400  -113112.33      591.80211     -112520.53      199.97477      200.02244      705.69327    
      1500  -113100.97      605.0299      -112495.94      199.97085      200.01848      706.04366    
      1600  -113080.29      606.14725     -112474.15      199.97071      200.02004      706.39406    
      1700  -113083.81      611.4804      -112472.33      199.96403      200.01692      706.74445    
      1800  -113076.63      589.29044     -112487.34      199.96252      200.02125      707.09484    
      1900  -113097.42      596.14987     -112501.27      199.95228      200.01778      707.44524    
      2000  -113083.96      584.87064     -112499.09      199.95191      200.02332      707.79563    
      2100  -113081.98      599.92774     -112482.05      199.94172      200.01694      708.14602    
      2200  -113066.06      604.60429     -112461.45      199.94367      200.02027      708.49642    
      2300  -113070.09      616.04953     -112454.04      199.93467      200.01264      708.84681    
      2400  -113069.93      606.22529     -112463.7       199.93479      200.01468      709.19721    
      2500  -113084.38      608.44081     -112475.94      199.92524      200.00985      709.5476     
      2600  -113080.93      603.0055      -112477.93      199.92108      200.01222      709.89799    
      2700  -113076.01      610.95588     -112465.05      199.91168      200.01001      710.24839    
      2800  -113063.87      618.38477     -112445.48      199.90631      200.01046      710.59878    
      2900  -113060.71      626.51288     -112434.19      199.89939      200.00687      710.94918    
      3000  -113051.16      615.31063     -112435.85      199.89547      200.00475      711.29957    
      3100  -113053.62      609.18619     -112444.43      199.88898      199.99957      711.64996    
      3200  -113052.1       604.65096     -112447.45      199.88385      199.99838      712.00036    
      3300  -113039.42      602.14878     -112437.27      199.87515      199.99479      712.35075    
      3400  -113027.59      607.84867     -112419.74      199.86816      199.99488      712.70114    
      3500  -113015.97      611.53237     -112404.44      199.85875      199.9918       713.05154    
      3600  -113011.46      610.05555     -112401.4       199.85154      199.9903       713.40193    
      3700  -113003.85      596.97186     -112406.88      199.84362      199.98598      713.75233    
      3800  -113007.66      596.32661     -112411.33      199.8369       199.98162      714.10272    
      3900  -113001.29      595.5379      -112405.75      199.82952      199.97685      714.45311    
      4000  -112988.69      599.10814     -112389.58      199.82178      199.97267      714.80351    
      4100  -112980.64      607.41934     -112373.22      199.81197      199.96885      715.1539     
      4200  -112976.99      611.18175     -112365.81      199.80275      199.96572      715.5043     
      4300  -112972.83      604.78184     -112368.05      199.79222      199.96082      715.85469    
      4400  -112976.41      603.96851     -112372.44      199.7835       199.95664      716.20508    
      4500  -112969.24      600.14331     -112369.1       199.77333      199.94962      716.55548    
      4600  -112965.66      610.07405     -112355.58      199.7652       199.94488      716.90587    
      4700  -112948.05      609.86576     -112338.19      199.75379      199.9375       717.25627    
      4800  -112942.31      615.58958     -112326.72      199.74446      199.93296      717.60666    
      4900  -112935.12      609.57898     -112325.54      199.73236      199.92556      717.95705    
      5000  -112933.15      604.07268     -112329.08      199.72221      199.92013      718.30745    
      5100  -112932.95      604.23478     -112328.72      199.70954      199.91218      718.65784    
      5200  -112919.13      600.00305     -112319.13      199.69972      199.90623      719.00823    
      5300  -112909.25      607.18246     -112302.07      199.68651      199.89727      719.35863    
      5400  -112896.17      610.00692     -112286.17      199.67639      199.89155      719.70902    
      5500  -112893.58      614.11275     -112279.47      199.66208      199.8822       720.05942    
      5600  -112884.93      603.89322     -112281.04      199.65078      199.8766       720.40981    
      5700  -112884.28      602.72741     -112281.55      199.6362       199.86722      720.7602     
      5800  -112867.39      592.79031     -112274.6       199.62477      199.8601       721.1106     
      5900  -112864.1       605.03073     -112259.07      199.61057      199.84997      721.46099    
      6000  -112846.47      605.27872     -112241.19      199.59866      199.8424       721.81139    
      6100  -112836.79      607.03064     -112229.76      199.58392      199.8315       722.16178    
      6200  -112829.36      604.21213     -112225.14      199.57123      199.8236       722.51217    
      6300  -112828.88      605.03107     -112223.85      199.55444      199.81308      722.86257    
      6400  -112819.38      600.57628     -112218.81      199.54026      199.80507      723.21296    
      6500  -112813.58      606.44118     -112207.13      199.52347      199.79366      723.56335    
      6600  -112792.52      600.92128     -112191.6       199.50925      199.78391      723.91375    
      6700  -112785.83      607.29117     -112178.54      199.49276      199.77129      724.26414    
      6800  -112773.81      602.4701      -112171.34      199.47776      199.76025      724.61454    
      6900  -112772.95      605.05014     -112167.9       199.46086      199.74748      724.96493    
      7000  -112766.83      603.86819     -112162.97      199.44405      199.73561      725.31532    
      7100  -112759.92      607.48763     -112152.43      199.42623      199.72343      725.66572    
      7200  -112747.06      609.50498     -112137.55      199.40798      199.71103      726.01611    
      7300  -112738.54      614.11617     -112124.43      199.38993      199.69822      726.36651    
      7400  -112723.98      606.87927     -112117.11      199.37143      199.68422      726.7169     
      7500  -112716.8       604.39691     -112112.4       199.35363      199.67039      727.06729    
      7600  -112715.12      609.53718     -112105.59      199.33465      199.65502      727.41769    
      7700  -112702.37      609.69459     -112092.67      199.3167       199.64096      727.76808    
      7800  -112685.7       609.53365     -112076.16      199.29602      199.62527      728.11848    
      7900  -112672.9       612.12796     -112060.77      199.27682      199.61167      728.46887    
      8000  -112665.91      614.50424     -112051.41      199.25474      199.59558      728.81926    
      8100  -112654.66      607.69768     -112046.97      199.23474      199.58162      729.16966    
      8200  -112647.36      605.81608     -112041.54      199.21196      199.56439      729.52005    
      8300  -112631.47      601.96805     -112029.5       199.19201      199.54944      729.87044    
      8400  -112617.08      605.84226     -112011.24      199.16891      199.53068      730.22084    
      8500  -112597.84      605.33519     -111992.5       199.14865      199.51478      730.57123    
      8600  -112593.98      614.06157     -111979.91      199.12422      199.4955       730.92163    
      8700  -112574.52      600.90417     -111973.62      199.10228      199.47911      731.27202    
      8800  -112576.61      607.53636     -111969.07      199.07691      199.45896      731.62241    
      8900  -112563.91      602.40084     -111961.51      199.05462      199.44117      731.97281    
      9000  -112543.77      596.955       -111946.82      199.02901      199.41985      732.3232     
      9100  -112527.58      600.45221     -111927.13      199.00507      199.40144      732.6736     
      9200  -112520.89      610.36546     -111910.53      198.97778      199.38071      733.02399    
      9300  -112509.98      609.07172     -111900.91      198.9519       199.36174      733.37438    
      9400  -112500.6       603.47347     -111897.13      198.92448      199.33994      733.72478    
      9500  -112492.89      602.0834      -111890.81      198.89913      199.3184       734.07517    
      9600  -112479.23      602.13834     -111877.09      198.87297      199.29453      734.42557    
      9700  -112462.95      606.41024     -111856.54      198.84694      199.27189      734.77596    
      9800  -112452.48      615.38768     -111837.09      198.81853      199.24896      735.12635    
      9900  -112435.42      609.88353     -111825.54      198.78949      199.22812      735.47675    
     10000  -112427         607.62123     -111819.38      198.75823      199.20619      735.82714    
     10100  -112415.61      603.92684     -111811.68      198.72924      199.18403      736.17753    
     10200  -112403.64      605.47923     -111798.16      198.70013      199.15893      736.52793    
     10300  -112383.31      604.81623     -111778.5       198.67236      199.13416      736.87832    
     10400  -112371.4       613.0513      -111758.35      198.64294      199.10794      737.22872    
     10500  -112359.29      613.83999     -111745.45      198.61312      199.08407      737.57911    
     10600  -112350.12      611.96787     -111738.15      198.58029      199.05962      737.9295     
     10700  -112334.67      604.17123     -111730.5       198.54852      199.03634      738.2799     
     10800  -112323.73      606.23709     -111717.49      198.51617      199.01046      738.63029    
     10900  -112308.37      610.3446      -111698.03      198.48558      198.98469      738.98069    
     11000  -112285.88      609.45589     -111676.43      198.45342      198.95731      739.33108    
     11100  -112270.87      610.93633     -111659.93      198.42183      198.93127      739.68147    
     11200  -112256.3       605.54898     -111650.75      198.38807      198.90448      740.03187    
     11300  -112249.86      605.90203     -111643.95      198.3544       198.87914      740.38226    
     11400  -112232.51      599.19751     -111633.31      198.31986      198.85213      740.73265    
     11500  -112210.74      594.21641     -111616.52      198.28698      198.82546      741.08305    
     11600  -112197.12      602.57964     -111594.54      198.2536       198.79682      741.43344    
     11700  -112182.31      607.05912     -111575.25      198.2211       198.76897      741.78384    
     11800  -112169.37      607.47336     -111561.9       198.18609      198.74146      742.13423    
     11900  -112157.66      604.30256     -111553.36      198.15124      198.71572      742.48462    
     12000  -112145.46      601.93587     -111543.52      198.11561      198.68906      742.83502    
     12100  -112126.91      600.23691     -111526.67      198.08152      198.66194      743.18541    
     12200  -112105.31      601.01085     -111504.3       198.04753      198.63378      743.53581    
     12300  -112090.36      606.81539     -111483.55      198.01367      198.60632      743.8862     
     12400  -112075.65      608.17804     -111467.48      197.97882      198.57892      744.23659    
     12500  -112071.77      613.98602     -111457.78      197.94353      198.55253      744.58699    
     12600  -112048.46      602.27338     -111446.19      197.90829      198.52553      744.93738    
     12700  -112029.62      602.49715     -111427.13      197.87404      198.49795      745.28778    
     12800  -112011.35      608.03065     -111403.31      197.8398       198.46954      745.63817    
     12900  -111994.36      608.66202     -111385.69      197.80584      198.44188      745.98856    
     13000  -111983.43      607.88234     -111375.55      197.77025      198.41468      746.33896    
     13100  -111966.78      597.57037     -111369.21      197.73461      198.38878      746.68935    
     13200  -111948.49      598.36588     -111350.13      197.69908      198.36185      747.03974    
     13300  -111930.97      604.44424     -111326.52      197.66572      198.33429      747.39014    
     13400  -111921.23      615.17646     -111306.06      197.63204      198.30577      747.74053    
     13500  -111901.58      609.40038     -111292.18      197.59865      198.27867      748.09093    
     13600  -111885.29      600.35559     -111284.93      197.56418      198.25179      748.44132    
     13700  -111868.72      598.47087     -111270.25      197.52992      198.2263       748.79171    
     13800  -111853.78      604.79955     -111248.98      197.49559      198.20036      749.14211    
     13900  -111833.79      606.09943     -111227.69      197.46277      198.174        749.4925     
     14000  -111813.38      606.24582     -111207.13      197.43076      198.14727      749.8429     
     14100  -111794.93      606.33279     -111188.6       197.39882      198.1211       750.19329    
     14200  -111780.48      606.66485     -111173.81      197.36651      198.09541      750.54368    
     14300  -111766.16      602.51377     -111163.65      197.33453      198.07065      750.89408    
     14400  -111742.54      596.4461      -111146.09      197.30216      198.04587      751.24447    
     14500  -111730.1       610.17538     -111119.92      197.271        198.02198      751.59487    
     14600  -111707.68      609.362       -111098.32      197.23957      197.9968       751.94526    
     14700  -111689.9       609.21066     -111080.69      197.21016      197.97228      752.29565    
     14800  -111673.3       606.98062     -111066.32      197.18008      197.94651      752.64605    
     14900  -111655.13      596.72191     -111058.41      197.15119      197.92264      752.99644    
     15000  -111645.32      601.00716     -111044.31      197.12107      197.89823      753.34683    
     15100  -111622.37      601.64258     -111020.73      197.09181      197.87617      753.69723    
     15200  -111599.76      604.27577     -110995.49      197.06112      197.85353      754.04762    
     15300  -111579.43      607.2527      -110972.18      197.033        197.83183      754.39802    
     15400  -111566.23      613.74097     -110952.49      197.00566      197.80739      754.74841    
     15500  -111548.68      607.57853     -110941.1       196.98077      197.78372      755.0988     
     15600  -111532.92      603.44575     -110929.47      196.9548       197.75995      755.4492     
     15700  -111504.7       596.67717     -110908.03      196.92908      197.73889      755.79959    
     15800  -111489.18      606.1298      -110883.05      196.90177      197.71841      756.14999    
     15900  -111465.2       603.9144      -110861.28      196.87567      197.699        756.50038    
     16000  -111451.01      608.41341     -110842.59      196.85041      197.67841      756.85077    
     16100  -111429.99      605.48622     -110824.51      196.82717      197.65747      757.20117    
     16200  -111415.76      606.03376     -110809.73      196.80426      197.63623      757.55156    
     16300  -111395.09      601.06691     -110794.02      196.78103      197.61665      757.90195    
     16400  -111371.07      601.81454     -110769.25      196.75737      197.59797      758.25235    
     16500  -111353.32      611.67781     -110741.64      196.73447      197.57946      758.60274    
     16600  -111327.8       607.22267     -110720.58      196.713        197.56         758.95314    
     16700  -111309.93      607.15675     -110702.77      196.69242      197.54027      759.30353    
     16800  -111295.36      604.79541     -110690.56      196.67151      197.52136      759.65392    
     16900  -111277.2       599.68338     -110677.52      196.6501       197.50372      760.00432    
     17000  -111253.7       600.76024     -110652.94      196.6283       197.48674      760.35471    
     17100  -111235.43      607.53519     -110627.9       196.6075       197.47019      760.70511    
     17200  -111210.19      605.57924     -110604.61      196.58779      197.45238      761.0555     
     17300  -111184.96      603.23406     -110581.72      196.56968      197.434        761.40589    
     17400  -111171.17      609.50933     -110561.66      196.55179      197.41574      761.75629    
     17500  -111155.89      607.74559     -110548.14      196.53354      197.399        762.10668    
     17600  -111135.6       602.67538     -110532.92      196.5146       197.38339      762.45708    
     17700  -111119.76      610.89693     -110508.87      196.49562      197.36838      762.80747    
     17800  -111082.95      605.0215      -110477.93      196.47785      197.3532       763.15786    
     17900  -111065.87      609.76801     -110456.1       196.46103      197.33768      763.50826    
     18000  -111033.66      595.78334     -110437.88      196.4448       197.32207      763.85865    
     18100  -111026.03      604.14146     -110421.89      196.42868      197.30635      764.20904    
     18200  -111005.42      600.23486     -110405.18      196.41292      197.29146      764.55944    
     18300  -110984         598.97486     -110385.02      196.39609      197.27703      764.90983    
     18400  -110960.93      606.11371     -110354.82      196.38005      197.26379      765.26023    
     18500  -110937.77      610.29339     -110327.47      196.36342      197.24962      765.61062    
     18600  -110912.83      606.6411      -110306.18      196.34865      197.23574      765.96101    
     18700  -110896.77      605.72281     -110291.05      196.33403      197.22045      766.31141    
     18800  -110881.76      604.98425     -110276.77      196.32009      197.20614      766.6618     
     18900  -110860.55      606.17133     -110254.38      196.30512      197.19222      767.0122     
     19000  -110835.97      607.07327     -110228.89      196.29045      197.17969      767.36259    
     19100  -110813.15      608.90304     -110204.24      196.27556      197.16674      767.71298    
     19200  -110786.79      606.60484     -110180.18      196.26217      197.1539       768.06338    
     19300  -110759.97      604.3988      -110155.57      196.24861      197.14043      768.41377    
     19400  -110745.68      616.15349     -110129.53      196.23505      197.12846      768.76417    
     19500  -110721.94      612.88944     -110109.05      196.22049      197.11729      769.11456    
     19600  -110696.45      601.1975      -110095.26      196.20634      197.10677      769.46495    
     19700  -110679.98      603.67299     -110076.3       196.19311      197.09493      769.81535    
     19800  -110657.21      606.39852     -110050.81      196.18159      197.08227      770.16574    
     19900  -110626.44      606.27666     -110020.17      196.17026      197.06977      770.51613    
     20000  -110603.17      610.9728      -109992.2       196.15761      197.05861      770.86653    
     20100  -110585.45      613.95199     -109971.5       196.14357      197.04914      771.21692    
     20200  -110557.47      603.69734     -109953.77      196.12931      197.0398       771.56732    
     20300  -110540.22      604.01208     -109936.21      196.11633      197.02951      771.91771    
     20400  -110515.73      602.5555      -109913.18      196.10528      197.01754      772.2681     
     20500  -110494.66      613.39669     -109881.26      196.09454      197.00497      772.6185     
     20600  -110465.09      611.57304     -109853.52      196.08283      196.99393      772.96889    
     20700  -110443.14      609.60483     -109833.54      196.06909      196.98463      773.31929    
     20800  -110416.65      602.01851     -109814.63      196.05512      196.97585      773.66968    
     20900  -110399.83      605.59542     -109794.23      196.04265      196.96559      774.02007    
     21000  -110374.86      603.03359     -109771.83      196.03203      196.9538       774.37047    
     21100  -110349.33      602.30492     -109747.02      196.0218       196.94181      774.72086    
     21200  -110325.36      609.96594     -109715.39      196.01         196.93177      775.07125    
     21300  -110296.28      607.16427     -109689.11      195.99623      196.9234       775.42165    
     21400  -110284.27      611.73933     -109672.53      195.98225      196.9159       775.77204    
     21500  -110260.51      606.04101     -109654.47      195.96909      196.90661      776.12244    
     21600  -110234.39      604.60518     -109629.79      195.95866      196.8957       776.47283    
     21700  -110207.97      605.25983     -109602.71      195.94866      196.88279      776.82322    
     21800  -110185.12      609.0947      -109576.02      195.93872      196.87198      777.17362    
     21900  -110155.89      604.46662     -109551.43      195.9251       196.86191      777.52401    
     22000  -110134.12      606.53548     -109527.59      195.91164      196.85467      777.87441    
     22100  -110112.65      609.54737     -109503.1       195.89648      196.84545      778.2248     
     22200  -110086.1       607.28086     -109478.82      195.88456      196.83656      778.57519    
     22300  -110063.75      607.69447     -109456.06      195.8723       196.82398      778.92559    
     22400  -110036.37      601.7954      -109434.58      195.86278      196.8127       779.27598    
     22500  -110016.84      608.49843     -109408.34      195.85026      196.79998      779.62638    
     22600  -109986.92      609.30332     -109377.61      195.83856      196.7903       779.97677    
     22700  -109962.68      614.70603     -109347.97      195.82421      196.77944      780.32716    
     22800  -109934.62      607.19246     -109327.42      195.81216      196.77011      780.67756    
     22900  -109916.75      602.84991     -109313.9       195.79866      196.75772      781.02795    
     23000  -109894.92      606.12551     -109288.8       195.78792      196.74702      781.37834    
     23100  -109866.95      608.51888     -109258.43      195.7743       196.73492      781.72874    
     23200  -109836.89      609.14779     -109227.74      195.76194      196.72572      782.07913    
     23300  -109811.78      610.16496     -109201.61      195.74763      196.71427      782.42953    
     23400  -109791.04      608.65568     -109182.38      195.73576      196.70397      782.77992    
     23500  -109769.89      601.68619     -109168.2       195.72305      196.69068      783.13031    
     23600  -109739.36      601.691       -109137.66      195.71196      196.67896      783.48071    
     23700  -109708.27      603.6684      -109104.6       195.69794      196.66697      783.8311     
     23800  -109683.1       607.49384     -109075.61      195.68419      196.65708      784.1815     
     23900  -109655.68      606.41749     -109049.26      195.66974      196.64497      784.53189    
     24000  -109633.77      609.27444     -109024.49      195.65847      196.63182      784.88228    
     24100  -109609.84      604.56198     -109005.28      195.64677      196.61665      785.23268    
     24200  -109589.55      605.1594      -108984.39      195.63461      196.60336      785.58307    
     24300  -109561.47      607.01977     -108954.45      195.61956      196.59151      785.93346    
     24400  -109527.93      607.62412     -108920.3       195.60415      196.58084      786.28386    
     24500  -109502.67      608.09194     -108894.58      195.5895       196.56873      786.63425    
     24600  -109476.55      604.66762     -108871.88      195.57677      196.55437      786.98465    
     24700  -109452.98      603.37297     -108849.61      195.56589      196.53912      787.33504    
     24800  -109432.14      602.63491     -108829.51      195.5528       196.52409      787.68543    
     24900  -109410.61      605.73147     -108804.88      195.53844      196.51218      788.03583    
     25000  -109375.77      607.19772     -108768.58      195.52187      196.49992      788.38622    
     25100  -109339.03      601.64963     -108737.38      195.50758      196.48787      788.73662    
     25200  -109320.52      610.82807     -108709.69      195.49347      196.47209      789.08701    
     25300  -109296.04      611.52026     -108684.52      195.48242      196.45644      789.4374     
     25400  -109269.27      606.44883     -108662.82      195.46869      196.43958      789.7878     
     25500  -109240.43      599.15413     -108641.27      195.45466      196.4262       790.13819    
     25600  -109221.28      610.53938     -108610.74      195.43729      196.41245      790.48859    
     25700  -109186.06      611.20739     -108574.85      195.42198      196.39976      790.83898    
     25800  -109158.48      611.14125     -108547.34      195.406        196.38406      791.18937    
     25900  -109134.81      609.94667     -108524.86      195.39266      196.36906      791.53977    
     26000  -109109.4       607.00146     -108502.4       195.3777       196.35186      791.89016    
     26100  -109079.62      601.78799     -108477.84      195.36375      196.33688      792.24055    
     26200  -109052.33      600.2065      -108452.12      195.3476       196.32091      792.59095    
     26300  -109026.73      605.17466     -108421.56      195.33301      196.30636      792.94134    
     26400  -108994.92      607.04198     -108387.87      195.3176       196.28977      793.29174    
     26500  -108969.71      612.49936     -108357.21      195.30391      196.27403      793.64213    
     26600  -108941.39      608.5003      -108332.89      195.28819      196.25753      793.99252    
     26700  -108913.79      597.99511     -108315.79      195.27267      196.24346      794.34292    
     26800  -108890.96      602.55424     -108288.4       195.2553       196.22857      794.69331    
     26900  -108857.53      602.09436     -108255.44      195.23931      196.21469      795.04371    
     27000  -108825.21      600.93308     -108224.28      195.2226       196.19857      795.3941     
     27100  -108799.62      604.60529     -108195.01      195.20783      196.18331      795.74449    
     27200  -108774.42      606.63797     -108167.78      195.1912       196.16657      796.09489    
     27300  -108752.16      604.4673      -108147.69      195.17596      196.1516       796.44528    
     27400  -108723.33      597.83588     -108125.5       195.15868      196.13499      796.79568    
     27500  -108694.94      602.88719     -108092.05      195.14295      196.12019      797.14607    
     27600  -108665.63      608.47655     -108057.15      195.12575      196.10361      797.49646    
     27700  -108636.72      608.48551     -108028.24      195.1105       196.08779      797.84686    
     27800  -108606.54      605.41522     -108001.13      195.09435      196.07037      798.19725    
     27900  -108577.9       603.78619     -107974.11      195.07844      196.05473      798.54764    
     28000  -108549.59      603.80892     -107945.78      195.06026      196.03904      798.89804    
     28100  -108518.37      603.50509     -107914.86      195.04289      196.02514      799.24843    
     28200  -108491.56      609.71406     -107881.85      195.0242       196.00928      799.59883    
     28300  -108461.21      608.84591     -107852.36      195.00764      195.99434      799.94922    
     28400  -108437.18      606.2378      -107830.94      194.99019      195.97688      800.29961    
     28500  -108408.17      598.10614     -107810.07      194.97403      195.96119      800.65001    
     28600  -108386.09      607.32593     -107778.77      194.95514      195.94472      801.0004     
     28700  -108345.54      601.42475     -107744.11      194.93749      195.93015      801.3508     
     28800  -108327.18      613.74869     -107713.43      194.91882      195.91307      801.70119    
     28900  -108291.42      607.88242     -107683.54      194.90293      195.89618      802.05158    
     29000  -108262.28      608.5978      -107653.68      194.88578      195.87685      802.40198    
     29100  -108234.01      609.57427     -107624.44      194.86906      195.85975      802.75237    
     29200  -108206.32      608.40795     -107597.91      194.84973      195.8431       803.10276    
     29300  -108179.74      607.00602     -107572.73      194.82982      195.82776      803.45316    
     29400  -108149.86      604.48109     -107545.38      194.8099       195.81174      803.80355    
     29500  -108121.45      609.07844     -107512.37      194.79162      195.79414      804.15395    
     29600  -108081.21      605.14073     -107476.07      194.77378      195.77573      804.50434    
     29700  -108058.97      611.90318     -107447.07      194.75544      195.75775      804.85473    
     29800  -108034.35      606.40559     -107427.95      194.73602      195.74104      805.20513    
     29900  -108005.76      601.96117     -107403.8       194.71572      195.72402      805.55552    
     30000  -107972.45      601.54627     -107370.91      194.69703      195.70682      805.90592    
     30100  -107939.09      603.36265     -107335.73      194.67883      195.68772      806.25631    
     30200  -107912.6       609.71506     -107302.88      194.66105      195.66895      806.6067     
     30300  -107882.94      609.64417     -107273.3       194.64145      195.65031      806.9571     
     30400  -107851.16      604.65734     -107246.5       194.6218       195.633        807.30749    
     30500  -107829.93      602.44784     -107227.48      194.60106      195.61469      807.65789    
     30600  -107796.41      596.27428     -107200.14      194.58213      195.59652      808.00828    
     30700  -107765.84      604.37777     -107161.47      194.56326      195.57572      808.35867    
     30800  -107731.92      604.71356     -107127.2       194.54536      195.55567      808.70907    
     30900  -107705         610.33233     -107094.66      194.52512      195.53654      809.05946    
     31000  -107677.74      613.97447     -107063.77      194.50298      195.51952      809.40985    
     31100  -107640.31      601.51225     -107038.8       194.48071      195.50284      809.76025    
     31200  -107618.99      602.40241     -107016.59      194.4598       195.48364      810.11064    
     31300  -107585.78      601.03302     -106984.75      194.44211      195.46271      810.46104    
     31400  -107550.12      604.18291     -106945.94      194.42419      195.43972      810.81143    
     31500  -107522.59      608.431       -106914.16      194.40635      195.41917      811.16182    
     31600  -107493.12      608.33478     -106884.79      194.38454      195.39921      811.51222    
     31700  -107460.07      602.95712     -106857.11      194.36333      195.38177      811.86261    
     31800  -107434.44      601.06486     -106833.37      194.34103      195.3616       812.21301    
     31900  -107403.74      596.65375     -106807.09      194.32229      195.3414       812.5634     
     32000  -107378.37      610.53188     -106767.84      194.30261      195.31855      812.91379    
     32100  -107347.42      615.12918     -106732.29      194.28373      195.29803      813.26419    
     32200  -107308.8       606.98547     -106701.82      194.26162      195.2772       813.61458    
     32300  -107279.39      607.87028     -106671.52      194.24028      195.25875      813.96498    
     32400  -107249.61      607.95041     -106641.66      194.21741      195.23823      814.31537    
     32500  -107215.24      601.19913     -106614.04      194.19757      195.21776      814.66576    
     32600  -107193.32      607.54439     -106585.77      194.17718      195.19491      815.01616    
     32700  -107158.26      603.72018     -106554.54      194.15764      195.17349      815.36655    
     32800  -107127.91      610.46692     -106517.44      194.13629      195.15224      815.71694    
     32900  -107095.4       613.29529     -106482.1       194.11534      195.13208      816.06734    
     33000  -107061.13      605.86162     -106455.27      194.09469      195.11045      816.41773    
     33100  -107034.23      598.31416     -106435.92      194.07525      195.08856      816.76813    
     33200  -107006.91      601.71661     -106405.2       194.05516      195.06632      817.11852    
     33300  -106975.11      605.87993     -106369.23      194.0343       195.04664      817.46891    
     33400  -106937.73      604.73779     -106333         194.01155      195.02701      817.81931    
     33500  -106910.89      609.43409     -106301.45      193.98964      195.00824      818.1697     
     33600  -106879.01      606.27589     -106272.74      193.96841      194.9874       818.5201     
     33700  -106856.24      604.13298     -106252.11      193.9489       194.96592      818.87049    
     33800  -106823.64      599.49029     -106224.15      193.92926      194.94416      819.22088    
     33900  -106785.83      600.6176      -106185.22      193.90877      194.9236       819.57128    
     34000  -106762.13      612.23309     -106149.89      193.88727      194.90421      819.92167    
     34100  -106722.53      605.90537     -106116.62      193.86567      194.88501      820.27206    
     34200  -106688.75      605.35296     -106083.39      193.84497      194.86495      820.62246    
     34300  -106658.71      608.72621     -106049.99      193.82579      194.84379      820.97285    
     34400  -106629.19      610.65851     -106018.53      193.80663      194.82253      821.32325    
     34500  -106596.84      604.20336     -105992.63      193.78639      194.80266      821.67364    
     34600  -106568.67      601.70771     -105966.96      193.76509      194.78403      822.02403    
     34700  -106540.36      607.49042     -105932.87      193.74374      194.76564      822.37443    
     34800  -106498.65      607.02458     -105891.62      193.72303      194.74702      822.72482    
     34900  -106471.53      612.05559     -105859.47      193.70294      194.72722      823.07522    
     35000  -106437.61      606.72007     -105830.89      193.68311      194.7077       823.42561    
     35100  -106411.82      607.09461     -105804.73      193.66234      194.68892      823.776      
     35200  -106379.03      598.14458     -105780.89      193.64113      194.67096      824.1264     
     35300  -106353.89      599.63067     -105754.26      193.62041      194.6526       824.47679    
     35400  -106315.76      603.58912     -105712.18      193.60054      194.63292      824.82719    
     35500  -106283.91      610.66496     -105673.24      193.58235      194.61326      825.17758    
     35600  -106246.82      608.78619     -105638.03      193.56257      194.59273      825.52797    
     35700  -106210.73      604.3744      -105606.35      193.54311      194.57485      825.87837    
     35800  -106184.02      605.62598     -105578.39      193.52128      194.55595      826.22876    
     35900  -106158.93      604.9025      -105554.03      193.50186      194.53828      826.57915    
     36000  -106126.47      601.84023     -105524.63      193.4819       194.51807      826.92955    
     36100  -106088.99      606.76623     -105482.22      193.46362      194.49925      827.27994    
     36200  -106053.71      607.28456     -105446.43      193.44318      194.48029      827.63034    
     36300  -106021.13      606.09562     -105415.03      193.42257      194.46355      827.98073    
     36400  -105992.32      607.56701     -105384.75      193.40109      194.4463       828.33112    
     36500  -105959.55      602.45586     -105357.1       193.38102      194.42868      828.68152    
     36600  -105927.26      598.65359     -105328.61      193.36182      194.40966      829.03191    
     36700  -105896.53      605.76326     -105290.77      193.3435       194.39029      829.38231    
     36800  -105858.15      607.44058     -105250.71      193.32475      194.37136      829.7327     
     36900  -105825.89      608.05832     -105217.83      193.30507      194.35313      830.08309    
     37000  -105792.76      603.20196     -105189.56      193.2851       194.33545      830.43349    
     37100  -105769.83      603.99758     -105165.83      193.26562      194.31661      830.78388    
     37200  -105738.35      600.79707     -105137.55      193.24793      194.29728      831.13428    
     37300  -105699.67      607.22271     -105092.45      193.22997      194.27696      831.48467    
     37400  -105664.24      607.85572     -105056.39      193.21198      194.25869      831.83506    
     37500  -105634.04      608.11134     -105025.93      193.19122      194.24081      832.18546    
     37600  -105606.52      607.89119     -104998.63      193.17185      194.22454      832.53585    
     37700  -105571.89      602.2087      -104969.69      193.15233      194.20541      832.88624    
     37800  -105539.73      604.33116     -104935.4       193.13557      194.18719      833.23664    
     37900  -105507.73      614.63128     -104893.1       193.11692      194.16702      833.58703    
     38000  -105463.89      604.96495     -104858.92      193.09934      194.15045      833.93743    
     38100  -105439.55      610.26488     -104829.29      193.07799      194.13252      834.28782    
     38200  -105403.03      596.92594     -104806.11      193.05921      194.11709      834.63821    
     38300  -105382.08      604.44324     -104777.64      193.03978      194.09762      834.98861    
     38400  -105340.83      599.58152     -104741.25      193.02442      194.07842      835.339      
     38500  -105308.24      605.11315     -104703.12      193.00763      194.05685      835.6894     
     38600  -105271.92      605.72176     -104666.2       192.99167      194.03817      836.03979    
     38700  -105242.86      611.49111     -104631.36      192.97208      194.01994      836.39018    
     38800  -105209.8       610.62556     -104599.17      192.95279      194.00392      836.74058    
     38900  -105174.07      600.23943     -104573.83      192.93342      193.98602      837.09097    
     39000  -105154.48      608.45083     -104546.03      192.91654      193.96724      837.44136    
     39100  -105110.98      602.4694      -104508.51      192.90025      193.94733      837.79176    
     39200  -105075.22      607.01314     -104468.21      192.8832       193.92833      838.14215    
     39300  -105041.83      606.88667     -104434.94      192.86491      193.91157      838.49255    
     39400  -105012.69      607.77545     -104404.92      192.84526      193.89483      838.84294    
     39500  -104977.95      599.19917     -104378.75      192.82742      193.8785       839.19333    
     39600  -104956.08      602.05615     -104354.03      192.81         193.8599       839.54373    
     39700  -104917.84      602.6223      -104315.22      192.79435      193.84173      839.89412    
     39800  -104878.98      606.08269     -104272.9       192.77683      193.82353      840.24452    
     39900  -104844.49      608.44215     -104236.05      192.7596       193.8076       840.59491    
     40000  -104809.1       609.43303     -104199.67      192.74112      193.79018      840.9453     
     40100  -104777.58      608.58245     -104169         192.72509      193.7734       841.2957     
     40200  -104747.21      603.4804      -104143.73      192.70834      193.75445      841.64609    
     40300  -104719.64      604.81034     -104114.83      192.69321      193.7373       841.99649    
     40400  -104679.1       602.43658     -104076.66      192.67589      193.71965      842.34688    
     40500  -104647.89      609.05478     -104038.83      192.65919      193.70442      842.69727    
     40600  -104612.54      606.67032     -104005.87      192.6414       193.68829      843.04767    
     40700  -104578.35      604.34088     -103974.01      192.62542      193.67253      843.39806    
     40800  -104545.18      603.08364     -103942.1       192.60897      193.6562       843.74845    
     40900  -104516.43      606.29312     -103910.13      192.5922       193.64095      844.09885    
     41000  -104474.21      598.42427     -103875.79      192.57564      193.62655      844.44924    
     41100  -104445.54      608.98185     -103836.56      192.5583       193.61089      844.79964    
     41200  -104405.04      606.7426      -103798.29      192.54398      193.59606      845.15003    
     41300  -104374.16      608.934       -103765.23      192.52794      193.57843      845.50042    
     41400  -104347.02      603.92482     -103743.1       192.51387      193.56393      845.85082    
     41500  -104317.03      605.23598     -103711.79      192.4963       193.54815      846.20121    
     41600  -104280.32      607.13041     -103673.19      192.48066      193.53516      846.55161    
     41700  -104240.18      606.5075      -103633.68      192.4638       193.51995      846.902      
     41800  -104209.35      609.97161     -103599.38      192.44933      193.50504      847.25239    
     41900  -104176.86      609.43448     -103567.42      192.4344       193.48897      847.60279    
     42000  -104138.74      603.37877     -103535.36      192.41929      193.47379      847.95318    
     42100  -104110.75      608.90274     -103501.85      192.40376      193.45956      848.30358    
     42200  -104073.59      605.37802     -103468.21      192.38692      193.44531      848.65397    
     42300  -104041.7       607.00634     -103434.7       192.3714       193.43193      849.00436    
     42400  -104008.81      607.11396     -103401.69      192.35508      193.41733      849.35476    
     42500  -103968.58      600.38207     -103368.2       192.3398       193.40385      849.70515    
     42600  -103939.46      606.60973     -103332.85      192.32372      193.38941      850.05554    
     42700  -103907.85      611.75417     -103296.1       192.30842      193.37599      850.40594    
     42800  -103866.38      603.75738     -103262.63      192.29285      193.36167      850.75633    
     42900  -103840.8       607.12952     -103233.67      192.27791      193.34736      851.10673    
     43000  -103808.54      603.89448     -103204.65      192.26308      193.33291      851.45712    
     43100  -103774.51      605.91366     -103168.6       192.24785      193.31827      851.80751    
     43200  -103734.18      610.10878     -103124.07      192.23335      193.30427      852.15791    
     43300  -103702.87      613.09501     -103089.78      192.21775      193.28902      852.5083     
     43400  -103669.79      609.66255     -103060.13      192.20374      193.27486      852.8587     
     43500  -103634.62      602.13587     -103032.48      192.18838      193.25916      853.20909    
     43600  -103605.77      603.77424     -103002         192.17432      193.24498      853.55948    
     43700  -103570.42      600.49205     -102969.93      192.15847      193.23003      853.90988    
     43800  -103535.65      606.29286     -102929.36      192.14354      193.21671      854.26027    
     43900  -103498.1       610.43761     -102887.66      192.1279       193.20211      854.61066    
     44000  -103461.56      608.97359     -102852.59      192.11314      193.18828      854.96106    
     44100  -103427.33      603.27079     -102824.06      192.09817      193.17374      855.31145    
     44200  -103398.28      601.28302     -102797         192.08367      193.15953      855.66185    
     44300  -103365.94      606.04732     -102759.89      192.06887      193.145        856.01224    
     44400  -103326.48      606.17337     -102720.3       192.05394      193.13125      856.36263    
     44500  -103292.94      608.6152      -102684.33      192.03858      193.1169       856.71303    
     44600  -103257.52      607.25441     -102650.27      192.02445      193.10213      857.06342    
     44700  -103222.09      604.17196     -102617.92      192.01044      193.08612      857.41382    
     44800  -103190.83      604.20686     -102586.62      191.99724      193.07062      857.76421    
     44900  -103153.24      598.57677     -102554.66      191.98239      193.05464      858.1146     
     45000  -103125.82      608.66861     -102517.15      191.96795      193.04051      858.465      
     45100  -103085.09      610.68987     -102474.4       191.95189      193.02551      858.81539    
     45200  -103050.66      611.89182     -102438.77      191.93725      193.01126      859.16579    
     45300  -103019.68      607.79439     -102411.89      191.92227      192.99517      859.51618    
     45400  -102984.78      603.73457     -102381.05      191.90882      192.97952      859.86657    
     45500  -102952.62      606.1051      -102346.51      191.89421      192.96353      860.21697    
     45600  -102917.53      607.80259     -102309.72      191.87935      192.94855      860.56736    
     45700  -102885.07      613.15597     -102271.91      191.86432      192.9341       860.91775    
     45800  -102840.36      605.57984     -102234.78      191.84878      192.91895      861.26815    
     45900  -102821.79      617.57289     -102204.21      191.83511      192.90442      861.61854    
     46000  -102783.42      605.9343      -102177.48      191.82009      192.88766      861.96894    
     46100  -102750.61      606.38385     -102144.23      191.80715      192.8736       862.31933    
     46200  -102705.59      602.34153     -102103.25      191.79116      192.85689      862.66972    
     46300  -102674.24      612.12604     -102062.12      191.77815      192.84307      863.02012    
     46400  -102635.48      606.76094     -102028.72      191.76269      192.82579      863.37051    
     46500  -102601.92      603.61553     -101998.3       191.74986      192.81108      863.72091    
     46600  -102577.4       608.73681     -101968.66      191.73472      192.79458      864.0713     
     46700  -102539.19      602.85495     -101936.34      191.7206       192.77972      864.42169    
     46800  -102502.66      605.20218     -101897.46      191.70555      192.76471      864.77209    
     46900  -102459.87      607.53529     -101852.33      191.69018      192.75026      865.12248    
     47000  -102427.05      607.37155     -101819.68      191.67569      192.73651      865.47287    
     47100  -102402.06      609.05158     -101793.01      191.66022      192.72116      865.82327    
     47200  -102362.73      601.26604     -101761.46      191.6468       192.70741      866.17366    
     47300  -102336.36      609.85564     -101726.5       191.63167      192.69201      866.52406    
     47400  -102293.54      603.84746     -101689.7       191.61782      192.67852      866.87445    
     47500  -102257.14      608.62676     -101648.52      191.60301      192.66429      867.22484    
     47600  -102225.98      615.83233     -101610.15      191.58884      192.65014      867.57524    
     47700  -102193.11      610.44709     -101582.67      191.57481      192.63603      867.92563    
     47800  -102160.1       606.2189      -101553.88      191.55968      192.6218       868.27603    
     47900  -102125.7       606.851       -101518.85      191.54555      192.60886      868.62642    
     48000  -102082.2       601.19061     -101481.01      191.53026      192.59417      868.97681    
     48100  -102047.9       607.75848     -101440.14      191.51693      192.58044      869.32721    
     48200  -102012.43      613.30708     -101399.12      191.50254      192.56498      869.6776     
     48300  -101979.52      608.86825     -101370.65      191.48905      192.55093      870.028      
     48400  -101942.95      600.41791     -101342.53      191.47369      192.53704      870.37839    
     48500  -101914.33      605.17976     -101309.15      191.45839      192.5241       870.72878    
     48600  -101876.14      602.33388     -101273.8       191.44322      192.51082      871.07918    
     48700  -101842.94      605.08472     -101237.85      191.42806      192.49688      871.42957    
     48800  -101808.2       606.63346     -101201.56      191.41383      192.48344      871.77996    
     48900  -101772.97      605.94728     -101167.02      191.39878      192.46955      872.13036    
     49000  -101741.24      605.15386     -101136.09      191.3842       192.45622      872.48075    
     49100  -101705.95      600.90572     -101105.05      191.36953      192.44241      872.83115    
     49200  -101671.99      604.17224     -101067.81      191.35498      192.42859      873.18154    
     49300  -101630.45      608.97582     -101021.48      191.34092      192.41452      873.53193    
     49400  -101595.23      610.89299     -100984.34      191.32626      192.39978      873.88233    
     49500  -101557.58      603.46567     -100954.12      191.31209      192.38647      874.23272    
     49600  -101531.41      608.67269     -100922.73      191.29616      192.37159      874.58312    
     49700  -101493.68      606.45132     -100887.23      191.28199      192.35821      874.93351    
     49800  -101457.92      606.98274     -100850.94      191.26636      192.34311      875.2839     
     49900  -101419.87      603.67895     -100816.19      191.25198      192.32892      875.6343     
     50000  -101390.2       603.45874     -100786.74      191.23693      192.31373      875.98469    
     50100  -101360.37      601.27997     -100759.09      191.22239      192.29889      876.33509    
     50200  -101317.69      599.1471      -100718.54      191.2074       192.28424      876.68548    
     50300  -101284.57      608.32021     -100676.25      191.19162      192.26962      877.03587    
     50400  -101251.65      612.41068     -100639.24      191.17695      192.25633      877.38627    
     50500  -101214.84      608.76399     -100606.08      191.16047      192.24124      877.73666    
     50600  -101174.95      602.21636     -100572.73      191.14646      192.22829      878.08705    
     50700  -101143.83      606.81505     -100537.02      191.13004      192.21236      878.43745    
     50800  -101103.71      603.41788     -100500.29      191.11685      192.19852      878.78784    
     50900  -101070.97      607.23462     -100463.74      191.10095      192.1817       879.13824    
     51000  -101039.78      611.6664      -100428.11      191.08756      192.16761      879.48863    
     51100  -101003.19      607.54095     -100395.65      191.07143      192.15053      879.83902    
     51200  -100972.87      607.31002     -100365.56      191.05794      192.13559      880.18942    
     51300  -100936.03      605.35712     -100330.68      191.04268      192.1185       880.53981    
     51400  -100894.9       608.39697     -100286.5       191.02805      192.10273      880.89021    
     51500  -100854.67      611.07973     -100243.59      191.01204      192.08728      881.2406     
     51600  -100822.44      610.36948     -100212.07      190.99529      192.07211      881.59099    
     51700  -100786.41      605.4169      -100181         190.97971      192.05718      881.94139    
     51800  -100759.37      611.18713     -100148.18      190.9634       192.04042      882.29178    
     51900  -100717.69      603.12783     -100114.56      190.94922      192.02443      882.64217    
     52000  -100683.71      600.79666     -100082.91      190.93361      192.00666      882.99257    
     52100  -100653.48      597.99844     -100055.49      190.91951      191.99084      883.34296    
     52200  -100624.64      604.42048     -100020.22      190.9028       191.97426      883.69336    
     52300  -100581.34      609.11891     -99972.222      190.887        191.95986      884.04375    
     52400  -100539.03      606.09628     -99932.932      190.8702       191.94349      884.39414    
     52500  -100504.98      607.81854     -99897.157      190.85551      191.9276       884.74454    
     52600  -100468.64      602.51109     -99866.132      190.83993      191.90988      885.09493    
     52700  -100435.11      600.12209     -99834.984      190.82563      191.89318      885.44533    
     52800  -100409.43      611.94613     -99797.485      190.80992      191.8755       885.79572    
     52900  -100359.19      610.2977      -99748.897      190.79472      191.85877      886.14611    
     53000  -100326.82      616.45328     -99710.363      190.77894      191.84139      886.49651    
     53100  -100289.39      608.27229     -99681.121      190.7632       191.82467      886.8469     
     53200  -100265.06      614.76965     -99650.292      190.74699      191.80864      887.1973     
     53300  -100225.06      606.45679     -99618.601      190.7303       191.79263      887.54769    
     53400  -100190.38      604.30107     -99586.078      190.71394      191.77741      887.89808    
     53500  -100151.99      600.84226     -99551.145      190.69745      191.76081      888.24848    
     53600  -100123.97      608.33203     -99515.642      190.68304      191.74495      888.59887    
     53700  -100081.85      602.65586     -99479.191      190.66732      191.7273       888.94926    
     53800  -100045.66      606.12703     -99439.534      190.65267      191.71192      889.29966    
     53900  -100009.35      611.10045     -99398.251      190.6356       191.69618      889.65005    
     54000  -99966.156      605.18941     -99360.967      190.6188       191.6819       890.00045    
     54100  -99937.932      605.44843     -99332.483      190.60252      191.66655      890.35084    
     54200  -99906.855      607.79583     -99299.059      190.5871       191.65048      890.70123    
     54300  -99871.116      610.11346     -99261.003      190.57236      191.63379      891.05163    
     54400  -99831.083      610.45186     -99220.632      190.55697      191.61693      891.40202    
     54500  -99793.074      617.22565     -99175.848      190.54093      191.60163      891.75242    
     54600  -99751.582      612.40867     -99139.173      190.52398      191.5861       892.10281    
     54700  -99723.335      611.59283     -99111.743      190.50772      191.57053      892.4532     
     54800  -99689.729      610.62527     -99079.104      190.49191      191.55484      892.8036     
     54900  -99647.546      601.55427     -99045.991      190.47534      191.53868      893.15399    
     55000  -99616.333      603.66148     -99012.671      190.45964      191.52349      893.50439    
     55100  -99585.621      608.34815     -98977.273      190.4425       191.50776      893.85478    
     55200  -99546.181      606.55625     -98939.625      190.4263       191.49336      894.20517    
     55300  -99504.656      605.89634     -98898.76       190.40907      191.47788      894.55557    
     55400  -99469.272      610.64056     -98858.631      190.39322      191.46273      894.90596    
     55500  -99431.373      606.93707     -98824.436      190.37728      191.44668      895.25635    
     55600  -99394.032      599.34121     -98794.69       190.36108      191.43107      895.60675    
     55700  -99356.627      599.5305      -98757.097      190.34416      191.41604      895.95714    
     55800  -99324.318      607.45448     -98716.864      190.32722      191.40037      896.30754    
     55900  -99291.975      614.7162      -98677.258      190.31174      191.38402      896.65793    
     56000  -99254.531      609.4426      -98645.088      190.29566      191.36648      897.00832    
     56100  -99220.718      607.58141     -98613.137      190.28026      191.35064      897.35872    
     56200  -99184.791      606.49432     -98578.297      190.26252      191.33366      897.70911    
     56300  -99150.974      609.46335     -98541.51       190.2463       191.31912      898.05951    
     56400  -99108.494      600.74342     -98507.75       190.22809      191.30249      898.4099     
     56500  -99073.581      598.25464     -98475.326      190.21252      191.28727      898.76029    
     56600  -99041.587      604.92807     -98436.659      190.19585      191.26899      899.11069    
     56700  -98997.737      609.72921     -98388.008      190.18084      191.2528       899.46108    
     56800  -98962.133      616.64137     -98345.491      190.1634       191.23609      899.81147    
     56900  -98921.08       607.75857     -98313.321      190.14595      191.22209      900.16187    
     57000  -98888.707      609.18322     -98279.523      190.12756      191.2069       900.51226    
     57100  -98847.671      602.27704     -98245.394      190.11128      191.19051      900.86266    
     57200  -98817.814      606.64586     -98211.168      190.09614      191.17265      901.21305    
     57300  -98776.326      601.65764     -98174.669      190.0805       191.15485      901.56344    
     57400  -98750.117      610.18978     -98139.927      190.06394      191.13824      901.91384    
     57500  -98714.61       605.00626     -98109.603      190.04596      191.12179      902.26423    
     57600  -98667.702      598.94135     -98068.761      190.029        191.1057       902.61463    
     57700  -98633.071      612.04394     -98021.027      190.01194      191.0878       902.96502    
     57800  -98592.782      612.83453     -97979.947      189.99611      191.06987      903.31541    
     57900  -98559.096      612.1874      -97946.908      189.97968      191.05169      903.66581    
     58000  -98526.491      615.07379     -97911.417      189.96252      191.0343       904.0162     
     58100  -98483.054      603.46357     -97879.59       189.94529      191.0173       904.3666     
     58200  -98448.661      602.98146     -97845.679      189.92892      190.99977      904.71699    
     58300  -98413.062      603.34096     -97809.721      189.91246      190.98102      905.06738    
     58400  -98377.926      606.3062      -97771.62       189.89628      190.96366      905.41778    
     58500  -98340.622      603.76673     -97736.856      189.87772      190.94694      905.76817    
     58600  -98312.373      608.738       -97703.635      189.85927      190.9316       906.11856    
     58700  -98266.256      603.66404     -97662.592      189.84122      190.91444      906.46896    
     58800  -98225.137      613.68976     -97611.448      189.82588      190.89576      906.81935    
     58900  -98182.298      613.30909     -97568.989      189.81005      190.8754       907.16975    
     59000  -98144.697      610.14249     -97534.555      189.79421      190.85786      907.52014    
     59100  -98117.224      615.23707     -97501.987      189.7759       190.83985      907.87053    
     59200  -98078.384      609.61294     -97468.771      189.75844      190.82321      908.22093    
     59300  -98036.371      601.69458     -97434.676      189.74088      190.80543      908.57132    
     59400  -98001.405      603.2571      -97398.148      189.72445      190.78687      908.92172    
     59500  -97967.42       606.24881     -97361.171      189.70833      190.7685       909.27211    
     59600  -97935.039      610.54067     -97324.498      189.69139      190.75073      909.6225     
     59700  -97891.416      603.8268      -97287.59       189.67367      190.73409      909.9729     
     59800  -97862.106      602.29066     -97259.816      189.65596      190.71754      910.32329    
     59900  -97821.518      603.49644     -97218.022      189.63936      190.7002       910.67369    
     60000  -97775.415      605.69133     -97169.724      189.62322      190.68226      911.02408    
     60100  -97735.021      610.49835     -97124.523      189.60651      190.66516      911.37447    
     60200  -97695.061      606.73588     -97088.325      189.58859      190.64937      911.72487    
     60300  -97666.035      610.52653     -97055.509      189.57025      190.63358      912.07526    
     60400  -97620.577      605.0604      -97015.516      189.55302      190.61725      912.42565    
     60500  -97578.065      601.4232      -96976.641      189.53668      190.5996       912.77605    
     60600  -97549.178      607.83908     -96941.338      189.52098      190.58189      913.12644    
     60700  -97510.69       606.803       -96903.887      189.50414      190.56442      913.47684    
     60800  -97474.897      612.00348     -96862.893      189.48682      190.54809      913.82723    
     60900  -97430.052      607.38049     -96822.672      189.4692       190.53216      914.17762    
     61000  -97391.238      607.30356     -96783.934      189.45207      190.51582      914.52802    
     61100  -97352.079      607.58551     -96744.494      189.43557      190.49842      914.87841    
     61200  -97313.433      608.59569     -96704.838      189.42001      190.48076      915.22881    
     61300  -97277.277      610.1376      -96667.14       189.40413      190.4638       915.5792     
     61400  -97239.383      610.39317     -96628.99       189.38601      190.44769      915.92959    
     61500  -97195.941      607.97703     -96587.964      189.36839      190.43402      916.27999    
     61600  -97153.672      605.83328     -96547.839      189.34945      190.41765      916.63038    
     61700  -97114.943      606.03347     -96508.909      189.33397      190.40235      916.98077    
     61800  -97074.797      606.72086     -96468.076      189.31637      190.38425      917.33117    
     61900  -97034.63       606.70468     -96427.925      189.30054      190.36875      917.68156    
     62000  -97000.669      610.61238     -96390.057      189.28205      190.35213      918.03196    
     62100  -96963.615      612.83986     -96350.775      189.26529      190.33731      918.38235    
     62200  -96917.468      607.531       -96309.937      189.24744      190.31968      918.73274    
     62300  -96879.784      608.72209     -96271.062      189.23181      190.30344      919.08314    
     62400  -96837.415      605.92678     -96231.488      189.21402      190.28613      919.43353    
     62500  -96798.401      607.50733     -96190.894      189.19725      190.271        919.78393    
     62600  -96761.338      610.12935     -96151.209      189.17949      190.25386      920.13432    
     62700  -96726.228      615.28922     -96110.939      189.16447      190.23719      920.48471    
     62800  -96682.105      611.88619     -96070.219      189.14843      190.21827      920.83511    
     62900  -96637.809      609.70079     -96028.109      189.13334      190.20179      921.1855     
     63000  -96588.733      602.13918     -95986.594      189.11522      190.18518      921.5359     
     63100  -96553.076      608.01063     -95945.066      189.09811      190.17108      921.88629    
     63200  -96513.739      610.20026     -95903.538      189.07958      190.15382      922.23668    
     63300  -96468.724      606.89643     -95861.828      189.06459      190.13835      922.58708    
     63400  -96425.837      605.1005      -95820.737      189.04663      190.11968      922.93747    
     63500  -96389.708      610.45316     -95779.254      189.03099      190.10453      923.28786    
     63600  -96352.154      614.59227     -95737.562      189.01226      190.08668      923.63826    
     63700  -96307.065      610.8313      -95696.233      188.99671      190.07116      923.98865    
     63800  -96262.578      606.78159     -95655.797      188.97934      190.05232      924.33905    
     63900  -96218.127      604.80886     -95613.319      188.96388      190.03588      924.68944    
     64000  -96182.78       611.83785     -95570.942      188.94533      190.01896      925.03983    
     64100  -96136.267      608.4408      -95527.826      188.92785      190.00412      925.39023    
     64200  -96094.811      609.7276      -95485.083      188.91048      189.98644      925.74062    
     64300  -96051.498      610.1143      -95441.383      188.89617      189.96821      926.09102    
     64400  -96011.311      611.79148     -95399.52       188.88065      189.94853      926.44141    
     64500  -95958.783      602.51061     -95356.273      188.86508      189.93166      926.7918     
     64600  -95924.928      611.42006     -95313.508      188.84699      189.91456      927.1422     
     64700  -95880.218      610.89652     -95269.321      188.83043      189.89804      927.49259    
     64800  -95834.842      609.34053     -95225.501      188.8139       189.87983      927.84298    
     64900  -95793.438      611.55211     -95181.886      188.79781      189.86247      928.19338    
     65000  -95741.099      603.54844     -95137.55       188.78029      189.84541      928.54377    
     65100  -95706.281      612.52609     -95093.755      188.76276      189.82947      928.89417    
     65200  -95659.169      609.71029     -95049.459      188.74533      189.81252      929.24456    
     65300  -95617.233      612.40181     -95004.831      188.7296       189.79492      929.59495    
     65400  -95572.473      612.26286     -94960.21       188.71394      189.77685      929.94535    
     65500  -95527.435      610.97731     -94916.457      188.69741      189.76031      930.29574    
     65600  -95481.662      609.44278     -94872.22       188.67932      189.74433      930.64614    
     65700  -95439.113      611.36118     -94827.752      188.66289      189.72854      930.99653    
     65800  -95387.359      604.74957     -94782.609      188.6466       189.71064      931.34692    
     65900  -95345.348      608.60106     -94736.747      188.63111      189.69423      931.69732    
     66000  -95294.148      603.62267     -94690.525      188.614        189.67727      932.04771    
     66100  -95253.638      610.3735      -94643.265      188.59807      189.6611       932.39811    
     66200  -95207.38       610.8301      -94596.55       188.58234      189.64331      932.7485     
     66300  -95163.961      613.30382     -94550.657      188.56739      189.62606      933.09889    
     66400  -95113.649      609.56824     -94504.081      188.55114      189.60923      933.44929    
     66500  -95070.434      611.87384     -94458.56       188.5343       189.59381      933.79968    
     66600  -95025.379      613.22173     -94412.158      188.51708      189.57828      934.15007    
     66700  -94971.881      607.53942     -94364.341      188.50062      189.56272      934.50047    
     66800  -94924.761      608.02733     -94316.733      188.48413      189.54674      934.85086    
     66900  -94878.277      609.8339      -94268.443      188.46777      189.5311       935.20126    
     67000  -94832.415      610.95955     -94221.455      188.45149      189.51512      935.55165    
     67100  -94786.672      613.42773     -94173.244      188.4361       189.49883      935.90204    
     67200  -94735.3        611.11904     -94124.181      188.42029      189.48236      936.25244    
     67300  -94689.436      612.97465     -94076.462      188.40411      189.46703      936.60283    
     67400  -94633.152      605.46859     -94027.684      188.38665      189.45163      936.95323    
     67500  -94590.871      611.69237     -93979.179      188.37018      189.43698      937.30362    
     67600  -94541.753      611.52678     -93930.226      188.3537       189.42066      937.65401    
     67700  -94489.093      609.53358     -93879.559      188.33843      189.40451      938.00441    
     67800  -94441.239      611.97479     -93829.264      188.32251      189.38783      938.3548     
     67900  -94394.508      614.22392     -93780.284      188.30739      189.37185      938.7052     
     68000  -94344.411      612.682       -93731.729      188.29146      189.35523      939.05559    
     68100  -94293.446      610.91763     -93682.528      188.27567      189.33944      939.40598    
     68200  -94240.481      608.80526     -93631.676      188.25945      189.32422      939.75638    
     68300  -94192.603      612.4411      -93580.162      188.24201      189.30923      940.10677    
     68400  -94143.002      612.99081     -93530.012      188.22558      189.29512      940.45716    
     68500  -94086.823      608.00793     -93478.815      188.20867      189.279        940.80756    
     68600  -94038.281      612.69615     -93425.584      188.19405      189.26317      941.15795    
     68700  -93987.471      613.26578     -93374.205      188.17838      189.24561      941.50835    
     68800  -93929.327      606.68655     -93322.64       188.16345      189.23076      941.85874    
     68900  -93881.884      610.6525      -93271.231      188.1456       189.2144       942.20913    
     69000  -93831.798      611.16397     -93220.634      188.13004      189.20034      942.55953    
     69100  -93776.862      607.56085     -93169.301      188.11291      189.18334      942.90992    
     69200  -93730.492      613.34236     -93117.15       188.09855      189.16831      943.26032    
     69300  -93676.35       611.32768     -93065.022      188.08141      189.15109      943.61071    
     69400  -93625.525      612.25554     -93013.27       188.0665       189.13637      943.9611     
     69500  -93572.913      613.14491     -92959.768      188.04964      189.11912      944.3115     
     69600  -93514.169      608.89292     -92905.276      188.03548      189.10328      944.66189    
     69700  -93470.529      618.67535     -92851.853      188.01952      189.08565      945.01228    
     69800  -93405.387      608.63655     -92796.751      188.00413      189.07048      945.36268    
     69900  -93353.107      611.56181     -92741.545      187.98648      189.0542       945.71307    
     70000  -93303.114      615.02185     -92688.092      187.97117      189.03907      946.06347    
     70100  -93250.096      617.57064     -92632.525      187.95461      189.02186      946.41386    
     70200  -93197.5        620.65232     -92576.847      187.93917      189.00601      946.76425    
     70300  -93138.046      615.77273     -92522.274      187.92265      188.98926      947.11465    
     70400  -93083.512      615.27089     -92468.241      187.90731      188.973        947.46504    
     70500  -93032.433      619.30848     -92413.125      187.89175      188.9559       947.81544    
     70600  -92975.921      618.94211     -92356.978      187.87598      188.93948      948.16583    
     70700  -92914.188      615.42987     -92298.758      187.85932      188.92369      948.51622    
     70800  -92863.519      623.36206     -92240.157      187.84259      188.90818      948.86662    
     70900  -92802.881      618.95784     -92183.923      187.82698      188.89178      949.21701    
     71000  -92745.882      619.05516     -92126.827      187.81185      188.87446      949.56741    
     71100  -92691.005      619.29504     -92071.71       187.79594      188.8583       949.9178     
     71200  -92636.018      621.29258     -92014.725      187.77924      188.84275      950.26819    
     71300  -92568.734      611.98528     -91956.748      187.76338      188.82665      950.61859    
     71400  -92521.144      622.31906     -91898.825      187.74842      188.80908      950.96898    
     71500  -92458.348      615.64874     -91842.699      187.73351      188.79232      951.31937    
     71600  -92410.779      624.97279     -91785.806      187.71651      188.77684      951.66977    
     71700  -92346.428      620.59106     -91725.837      187.6995       188.76232      952.02016    
     71800  -92289.341      619.75087     -91669.591      187.68284      188.7463       952.37056    
     71900  -92235.834      626.31258     -91609.521      187.66822      188.73         952.72095    
     72000  -92171.946      621.52858     -91550.417      187.65239      188.71282      953.07134    
     72100  -92115.479      625.16639     -91490.313      187.63669      188.69786      953.42174    
     72200  -92050.964      620.68499     -91430.279      187.61966      188.68171      953.77213    
     72300  -91993.286      622.04013     -91371.246      187.60475      188.66627      954.12253    
     72400  -91935.691      624.80341     -91310.888      187.58887      188.6488       954.47292    
     72500  -91878.488      630.08551     -91248.402      187.57336      188.63342      954.82331    
     72600  -91812.173      625.0937      -91187.079      187.55589      188.61742      955.17371    
     72700  -91751.893      627.02493     -91124.868      187.54064      188.60243      955.5241     
     72800  -91691.912      628.69109     -91063.221      187.52427      188.58497      955.8745     
[...]
     81600  -112105.72      651.54197     -111454.18      186.96776      188.10678      986.70916    
     81700  -112250.19      644.8398      -111605.35      186.97592      188.11524      987.05955    
     81800  -112382.84      637.4183      -111745.42      186.98479      188.12395      987.40994    
     81900  -112503.41      628.4882      -111874.92      186.99353      188.13287      987.76034    
     82000  -112614.42      622.25849     -111992.16      187.00324      188.14208      988.11073    
     82100  -112717.17      618.42698     -112098.74      187.01312      188.15113      988.46113    
     82200  -112807.89      611.86617     -112196.02      187.02313      188.16038      988.81152    
     82300  -112885.1       605.20733     -112279.89      187.03317      188.17025      989.16191    
     82400  -112950.23      602.71449     -112347.51      187.04331      188.18117      989.51231    
     82500  -113001.98      601.2171      -112400.77      187.05273      188.19238      989.8627     
     82600  -113041.74      600.67647     -112441.06      187.06227      188.20457      990.21309    
     82700  -113062.36      594.31638     -112468.05      187.07201      188.21679      990.56349    
     82800  -113067.48      594.86072     -112472.62      187.08321      188.22817      990.91388    
     82900  -113059.86      603.59909     -112456.26      187.09526      188.23815      991.26428    
     83000  -113039.7       605.61202     -112434.09      187.10696      188.24841      991.61467    
     83100  -113003.87      594.61777     -112409.25      187.11797      188.25855      991.96506    
     83200  -112951.74      586.38224     -112365.36      187.12946      188.26822      992.31546    
     83300  -112881.48      587.39309     -112294.09      187.13983      188.27791      992.66585    
     83400  -112789.76      584.14193     -112205.62      187.14975      188.28848      993.01625    
     83500  -112672.58      567.65445     -112104.92      187.15998      188.29953      993.36664    
     83600  -112536.97      549.68816     -111987.28      187.17023      188.30997      993.71703    
     83700  -112393.24      538.38238     -111854.86      187.18096      188.3206       994.06743    
     83800  -112311.01      594.9387      -111716.07      187.19173      188.33092      994.41782    
     83900  -112222.21      603.6321      -111618.58      187.19086      188.32952      994.76822    
     84000  -112167.6       617.69813     -111549.91      187.20375      188.34261      995.11861    
     84100  -112142.97      645.43787     -111497.53      187.21216      188.3501       995.469      
     84200  -112138.08      639.69321     -111498.39      187.22187      188.35675      995.8194     
     84300  -112199.73      620.86717     -111578.86      187.23376      188.3674       996.16979    
     84400  -112255.23      587.8911      -111667.34      187.24562      188.38096      996.52018    
     84500  -112276.37      568.08431     -111708.28      187.25562      188.39188      996.87058    
     84600  -112291.59      604.74567     -111686.85      187.26894      188.39898      997.22097    
     84700  -112319.8       651.35803     -111668.44      187.28755      188.41209      997.57137    
     84800  -112344.77      618.88001     -111725.89      187.30169      188.42691      997.92176    
     84900  -112347.58      562.98988     -111784.59      187.31982      188.44454      998.27215    
     85000  -112336.21      573.40437     -111762.8       187.33919      188.45988      998.62255    
     85100  -112312.18      621.12867     -111691.05      187.36158      188.47813      998.97294    
     85200  -112327.3       673.46485     -111653.84      187.39284      188.5015       999.32334    
     85300  -112358.88      638.80602     -111720.08      187.42533      188.52661      999.67373    
     85400  -112399.35      586.94804     -111812.4       187.45567      188.54993      1000.0241    
     85500  -112398.56      565.26181     -111833.3       187.47911      188.57567      1000.3745    
     85600  -112373.54      592.21568     -111781.33      187.49815      188.60111      1000.7249    
     85700  -112364.78      646.65091     -111718.13      187.51368      188.62907      1001.0753    
     85800  -112343.61      617.06601     -111726.54      187.52776      188.6575       1001.4257    
     85900  -112348.51      590.76005     -111757.75      187.53849      188.67654      1001.7761    
     86000  -112350.2       587.46835     -111762.73      187.5593       188.69702      1002.1265    
     86100  -112319.95      600.42832     -111719.53      187.58503      188.71233      1002.4769    
     86200  -112323.61      635.47548     -111688.13      187.61622      188.73352      1002.8273    
     86300  -112321.53      619.75216     -111701.78      187.64926      188.75101      1003.1777    
     86400  -112332.44      599.12794     -111733.31      187.68443      188.77697      1003.5281    
     86500  -112350.58      599.51768     -111751.06      187.71788      188.80074      1003.8785    
     86600  -112345.5       598.42322     -111747.08      187.75736      188.83058      1004.2289    
     86700  -112346.83      612.59115     -111734.24      187.79634      188.85992      1004.5792    
     86800  -112330.35      604.78063     -111725.57      187.84198      188.88979      1004.9296    
     86900  -112331.29      609.91378     -111721.38      187.88641      188.92083      1005.28      
     87000  -112340.29      611.3987      -111728.89      187.92767      188.94959      1005.6304    
     87100  -112342.22      600.6783      -111741.54      187.96918      188.9798       1005.9808    
     87200  -112352.99      604.48789     -111748.51      188.00703      189.01101      1006.3312    
     87300  -112363.06      610.98635     -111752.08      188.04723      189.04153      1006.6816    
     87400  -112379.81      616.17303     -111763.64      188.09032      189.07272      1007.032     
     87500  -112385.75      599.9852      -111785.76      188.13491      189.10413      1007.3824    
     87600  -112391.18      596.5201      -111794.66      188.17859      189.13315      1007.7328    
     87700  -112375.07      595.84187     -111779.23      188.22619      189.16081      1008.0832    
     87800  -112343.67      599.63653     -111744.04      188.27009      189.18371      1008.4336    
     87900  -112330.76      620.71731     -111710.04      188.31756      189.21053      1008.784     
     88000  -112332.88      627.26883     -111705.61      188.36364      189.23628      1009.1344    
     88100  -112339.48      606.12967     -111733.35      188.40847      189.26068      1009.4848    
     88200  -112349.74      590.02951     -111759.71      188.45445      189.28578      1009.8352    
     88300  -112349.72      596.66935     -111753.05      188.50048      189.30608      1010.1855    
     88400  -112341.17      615.52427     -111725.64      188.54825      189.32383      1010.5359    
     88500  -112342.58      621.98574     -111720.59      188.59163      189.33822      1010.8863    
     88600  -112360.91      613.88135     -111747.03      188.63285      189.35634      1011.2367    
     88700  -112374.74      592.12297     -111782.61      188.67308      189.37809      1011.5871    
     88800  -112386.36      589.18015     -111797.18      188.71159      189.4073       1011.9375    
     88900  -112377.43      592.84084     -111784.59      188.7474       189.4371       1012.2879    
     89000  -112365.28      613.40696     -111751.87      188.78331      189.46661      1012.6383    
     89100  -112339.4       613.39367     -111726         188.82076      189.49714      1012.9887    
     89200  -112340.27      614.09624     -111726.17      188.85637      189.52503      1013.3391    
     89300  -112343.69      598.94342     -111744.75      188.89481      189.55368      1013.6895    
     89400  -112354.11      595.81832     -111758.29      188.92557      189.58108      1014.0399    
     89500  -112366.95      611.73394     -111755.21      188.9495       189.61113      1014.3903    
     89600  -112355.78      610.29024     -111745.48      188.96923      189.6419       1014.7407    
     89700  -112368.56      618.62544     -111749.94      188.98992      189.67168      1015.0911    
     89800  -112373.68      603.28003     -111770.4       189.00761      189.69922      1015.4415    
     89900  -112382.08      598.61776     -111783.46      189.02824      189.72447      1015.7918    
     90000  -112378.97      598.69473     -111780.28      189.05019      189.75006      1016.1422    
     90100  -112366.08      605.40881     -111760.67      189.07265      189.77327      1016.4926    
     90200  -112363.68      615.3924      -111748.28      189.09615      189.79825      1016.843     
     90300  -112366.05      611.55213     -111754.5       189.11874      189.82626      1017.1934    
     90400  -112370.17      603.44245     -111766.73      189.13876      189.85683      1017.5438    
     90500  -112365.1       597.1712      -111767.92      189.15533      189.88874      1017.8942    
     90600  -112376.06      618.29249     -111757.76      189.1678       189.91956      1018.2446    
     90700  -112385.66      619.24179     -111766.42      189.17405      189.9484       1018.595     
     90800  -112399.99      609.83311     -111790.16      189.17404      189.97332      1018.9454    
     90900  -112401.77      593.91117     -111807.86      189.17268      189.99685      1019.2958    
     91000  -112397.35      596.27449     -111801.07      189.16422      190.01905      1019.6462    
     91100  -112382.8       607.1556      -111775.65      189.15833      190.03927      1019.9966    
     91200  -112375.55      618.06174     -111757.49      189.14687      190.05564      1020.347     
     91300  -112379.33      614.60972     -111764.72      189.13831      190.07106      1020.6974    
     91400  -112394.5       604.40305     -111790.1       189.12903      190.0811       1021.0478    
     91500  -112407.21      597.31213     -111809.9       189.12906      190.09077      1021.3981    
     91600  -112404.35      596.78592     -111807.57      189.13106      190.09582      1021.7485    
     91700  -112406.88      616.74492     -111790.13      189.13275      190.09933      1022.0989    
     91800  -112406.9       621.18196     -111785.71      189.13365      190.10279      1022.4493    
     91900  -112420.92      612.62752     -111808.29      189.13558      190.10653      1022.7997    
     92000  -112427.83      592.28002     -111835.55      189.13719      190.11327      1023.1501    
     92100  -112435.36      590.94355     -111844.42      189.13379      190.12228      1023.5005    
     92200  -112440.6       608.00145     -111832.6       189.13061      190.13276      1023.8509    
     92300  -112431.07      610.98008     -111820.09      189.1271       190.1403       1024.2013    
     92400  -112429.46      610.13769     -111819.33      189.12602      190.1474       1024.5517    
     92500  -112440.17      610.26364     -111829.91      189.12931      190.1535       1024.9021    
     92600  -112447.49      604.16916     -111843.32      189.13681      190.16139      1025.2525    
     92700  -112442.48      595.21748     -111847.26      189.14406      190.171        1025.6029    
     92800  -112456.28      617.73929     -111838.54      189.15379      190.18419      1025.9533    
     92900  -112448.46      607.91834     -111840.55      189.16573      190.19648      1026.3037    
     93000  -112470.89      613.80744     -111857.08      189.17946      190.20937      1026.6541    
     93100  -112479.24      602.22787     -111877.01      189.19499      190.22203      1027.0045    
     93200  -112485.2       600.77488     -111884.43      189.21296      190.23588      1027.3548    
     93300  -112487.81      606.08059     -111881.73      189.2265       190.2493       1027.7052    
     93400  -112492.13      611.0601      -111881.07      189.23775      190.26767      1028.0556    
     93500  -112493.1       606.45411     -111886.65      189.24644      190.28497      1028.406     
     93600  -112506.13      609.36768     -111896.76      189.25524      190.30343      1028.7564    
     93700  -112509.54      603.57976     -111905.96      189.26392      190.31995      1029.1068    
     93800  -112510.02      603.68303     -111906.34      189.2728       190.33481      1029.4572    
     93900  -112505.05      609.70101     -111895.35      189.28061      190.34888      1029.8076    
     94000  -112500.26      613.11012     -111887.15      189.28738      190.36072      1030.158     
     94100  -112499.43      606.2541      -111893.17      189.29396      190.37263      1030.5084    
     94200  -112513.08      605.37725     -111907.7       189.29834      190.38279      1030.8588    
     94300  -112519.64      601.56787     -111918.07      189.30305      190.39267      1031.2092    
     94400  -112517.54      601.44594     -111916.09      189.30755      190.40156      1031.5596    
     94500  -112514.71      608.28002     -111906.43      189.31003      190.40938      1031.91      
     94600  -112508.55      609.78555     -111898.77      189.31144      190.41753      1032.2604    
     94700  -112505.09      607.88109     -111897.21      189.31125      190.42639      1032.6108    
     94800  -112498.71      599.7546      -111898.95      189.30522      190.43364      1032.9611    
     94900  -112498.42      601.89359     -111896.53      189.29474      190.44266      1033.3115    
     95000  -112496.09      609.1281      -111886.96      189.28461      190.45218      1033.6619    
     95100  -112485.79      606.83419     -111878.95      189.26894      190.46069      1034.0123    
     95200  -112489.68      613.9601      -111875.72      189.24976      190.47238      1034.3627    
     95300  -112484.81      603.69775     -111881.11      189.22594      190.48563      1034.7131    
     95400  -112499.89      610.19368     -111889.7       189.19852      190.49731      1035.0635    
     95500  -112502.93      608.58127     -111894.35      189.16737      190.51069      1035.4139    
     95600  -112497.44      601.48776     -111895.95      189.13356      190.52622      1035.7643    
     95700  -112503.72      609.20381     -111894.52      189.09229      190.53925      1036.1147    
     95800  -112498.85      606.83681     -111892.01      189.05074      190.55519      1036.4651    
     95900  -112508.13      610.8402      -111897.29      189.00504      190.56781      1036.8155    
     96000  -112512.95      600.94231     -111912         188.95722      190.5786       1037.1659    
     96100  -112521.2       598.93374     -111922.27      188.90844      190.58382      1037.5163    
     96200  -112518.86      598.90705     -111919.96      188.86278      190.58892      1037.8667    
     96300  -112510.31      605.97915     -111904.33      188.8143       190.58953      1038.2171    
     96400  -112494.21      609.48059     -111884.73      188.76551      190.59206      1038.5674    
     96500  -112493.06      618.4637      -111874.59      188.71252      190.59162      1038.9178    
     96600  -112495.53      610.79662     -111884.73      188.65931      190.59055      1039.2682    
     96700  -112506.88      602.99578     -111903.89      188.60705      190.58417      1039.6186    
     96800  -112518.44      601.45061     -111916.99      188.5592       190.57705      1039.969     
     96900  -112520.06      600.07492     -111919.98      188.50833      190.56283      1040.3194    
     97000  -112515.87      602.03845     -111913.83      188.46079      190.55281      1040.6698    
     97100  -112511.12      609.14031     -111901.98      188.40755      190.53853      1041.0202    
     97200  -112506.57      613.60361     -111892.96      188.35475      190.52838      1041.3706    
     97300  -112510.4       612.86196     -111897.53      188.29714      190.51698      1041.721     
     97400  -112524.47      609.7005      -111914.77      188.24293      190.5063       1042.0714    
     97500  -112523.06      594.54414     -111928.51      188.1879       190.49187      1042.4218    
     97600  -112530.27      604.00762     -111926.26      188.1362       190.47885      1042.7722    
     97700  -112529.65      610.79025     -111918.86      188.08629      190.46238      1043.1226    
     97800  -112541.83      618.0116      -111923.81      188.04059      190.44552      1043.473     
     97900  -112561.71      612.85104     -111948.86      187.9978       190.43041      1043.8234    
     98000  -112575.86      597.21861     -111978.64      187.96021      190.41694      1044.1738    
     98100  -112588.09      595.68048     -111992.41      187.9297       190.40403      1044.5241    
     98200  -112580.72      599.21973     -111981.5       187.90451      190.3919       1044.8745    
     98300  -112574.73      614.97506     -111959.76      187.88707      190.3809       1045.2249    
     98400  -112573.8       619.68864     -111954.11      187.87702      190.36856      1045.5753    
     98500  -112578.56      604.98539     -111973.58      187.87461      190.35938      1045.9257    
     98600  -112585.21      595.61721     -111989.6       187.87489      190.35331      1046.2761    
     98700  -112584.9       600.09541     -111984.8       187.88024      190.34961      1046.6265    
     98800  -112576.17      609.76338     -111966.4       187.89013      190.34712      1046.9769    
     98900  -112567.28      614.55864     -111952.73      187.90758      190.34513      1047.3273    
     99000  -112567.46      611.91946     -111955.55      187.92775      190.33852      1047.6777    
     99100  -112562.54      597.84577     -111964.7       187.95607      190.33484      1048.0281    
     99200  -112567.72      602.66881     -111965.05      187.98789      190.32983      1048.3785    
     99300  -112556.02      600.74837     -111955.27      188.02669      190.32745      1048.7289    
     99400  -112563.12      618.47844     -111944.64      188.06838      190.32697      1049.0793    
     99500  -112568.87      617.64733     -111951.22      188.11493      190.32952      1049.4297    
     99600  -112569.62      600.18768     -111969.44      188.16353      190.33158      1049.7801    
     99700  -112576.47      598.20469     -111978.27      188.21669      190.33685      1050.1304    
     99800  -112568.47      601.47461     -111967         188.27151      190.34263      1050.4808    
     99900  -112558.22      610.55208     -111947.67      188.32855      190.34837      1050.8312    
    100000  -112554.83      616.80241     -111938.03      188.38813      190.35535      1051.1816    
Loop time of 2953.86 on 12 procs for 100000 steps with 15640 atoms

Performance: 2.925 ns/day, 8.205 hours/ns, 33.854 timesteps/s, 529.477 katom-step/s
94.9% CPU use with 12 MPI tasks x 1 OpenMP threads

MPI task timing breakdown:
Section |  min time  |  avg time  |  max time  |%varavg| %total
---------------------------------------------------------------
Pair    | 2053.4     | 2308.4     | 2616.4     | 344.9 | 78.15
Neigh   | 9.6761     | 12.561     | 15.932     |  58.6 |  0.43
Comm    | 103.77     | 415.41     | 702.14     | 826.4 | 14.06
Output  | 0.71718    | 0.77625    | 0.84575    |   4.5 |  0.03
Modify  | 51.628     | 214.02     | 430.99     |1030.6 |  7.25
Other   |            | 2.717      |            |       |  0.09

Nlocal:        1303.33 ave        3630 max         155 min
Histogram: 2 3 2 2 0 1 1 0 0 1
Nghost:        1593.08 ave        3610 max         469 min
Histogram: 1 3 3 0 2 0 1 0 1 1
Neighs:              0 ave           0 max           0 min
Histogram: 12 0 0 0 0 0 0 0 0 0

Total # of neighbors = 0
Ave neighs/atom = 0
Neighbor list builds = 839
Dangerous builds = 0
Total wall time: 0:49:14
