LAMMPS (2 Aug 2023 - Update 3)
OMP_NUM_THREADS environment is not set. Defaulting to 1 thread. (src/comm.cpp:98)
  using 1 OpenMP thread(s) per MPI task

# 1------general---------------
units                             metal      #单位为lammps 中的metel 类型
dimension                    3          #模拟的维度 三维
boundary                    p p p      #周期边界条件
atom_style                  atomic   #原子类型自动
atom_modify              map array sort 100 2.0
neighbor                    3.0 bin
neigh_modify            every 1 delay 0 check yes
#2 -----global variable-------定义全局变量，方便统一修改；
variable temperature equal 300
variable tstep equal 0.001
variable pressure equal 0
variable thermalstep equal 100
variable dumpstep equal 1000
variable relaxtime equal 0
variable totaltime equal 100000
variable deformrate equal 5e-3
#3 -------model------------
#box tilt large
read_data     1.lmp
Reading data file ...
  orthogonal box = (-100 -100 -2.331251) to (100 100 38.891558)
  3 by 4 by 1 MPI processor grid
  reading atoms ...
  920 atoms
  read_data CPU = 0.144 seconds
replicate 1 1 3
Replication is creating a 1x1x3 = 3 times larger system...
  orthogonal box = (-100 -100 -2.331251) to (100 100 121.33718)
  3 by 2 by 2 MPI processor grid
  2760 atoms
  replicate CPU = 0.011 seconds
group SR type 2
720 atoms in group SR
delete_atoms group SR
Deleted 720 atoms, new total = 2040

write_data l.data
System init for write_data ...
WARNING: Communication cutoff is 0.0. No ghost atoms will be generated. Atoms may get lost. (src/comm_brick.cpp:210)

pair_style hybrid airebo 3.0 airebo 3.0  lj/cut 10
pair_coeff * * airebo 1 CH.airebo C NULL
Reading airebo potential file CH.airebo with DATE: 2011-10-25
pair_coeff * * airebo 2 CH.airebo NULL C
Reading airebo potential file CH.airebo with DATE: 2011-10-25
pair_coeff 1 2 lj/cut 0.00456 3.431

# 5------minimize -----------
min_style      sd
minimize       1.0e-4 1.0e-6 100 1000
Neighbor list info ...
  update: every = 1 steps, delay = 0 steps, check = yes
  max neighbors/atom: 2000, page size: 100000
  master list distance cutoff = 13.2
  ghost atom cutoff = 13.2
  binsize = 6.6, bins = 31 31 19
  5 neighbor lists, perpetual/occasional/extra = 5 0 0
  (1) pair airebo, perpetual, skip from (4)
      attributes: full, newton on, ghost
      pair build: skip/ghost
      stencil: none
      bin: none
  (2) pair airebo, perpetual, skip from (4)
      attributes: full, newton on, ghost
      pair build: skip/ghost
      stencil: none
      bin: none
  (3) pair lj/cut, perpetual, skip from (5)
      attributes: half, newton on, cut 13
      pair build: skip
      stencil: none
      bin: none
  (4) neighbor class addition, perpetual
      attributes: full, newton on, ghost
      pair build: full/bin/ghost
      stencil: full/ghost/bin/3d
      bin: standard
  (5) neighbor class addition, perpetual
      attributes: half, newton on, cut 13
      pair build: half/bin/atomonly/newton
      stencil: half/bin/3d
      bin: standard
Per MPI rank memory allocation (min/avg/max) = 8.274 | 8.598 | 9.245 Mbytes
   Step          Temp          E_pair         E_mol          TotEng         Press     
         0   0             -15095.132      0             -15095.132     -0.21847277   
         1   0             -15095.205      0             -15095.205     -0.39920433   
Loop time of 0.160806 on 12 procs for 1 steps with 2040 atoms

80.2% CPU use with 12 MPI tasks x 1 OpenMP threads

Minimization stats:
  Stopping criterion = energy tolerance
  Energy initial, next-to-last, final = 
     -15095.1323927906  -15095.1323927906  -15095.2048101032
  Force two-norm initial, final = 4.4355623 0.42504041
  Force max component initial, final = 0.098019031 0.0093756234
  Final line search alpha, max atom move = 1 0.0093756234
  Iterations, force evaluations = 1 2

MPI task timing breakdown:
Section |  min time  |  avg time  |  max time  |%varavg| %total
---------------------------------------------------------------
Pair    | 3.512e-06  | 0.0084478  | 0.03233    |  13.2 |  5.25
Neigh   | 0          | 0          | 0          |   0.0 |  0.00
Comm    | 1.716e-06  | 0.0031217  | 0.0129     |   9.0 |  1.94
Output  | 0          | 0          | 0          |   0.0 |  0.00
Modify  | 0          | 0          | 0          |   0.0 |  0.00
Other   |            | 0.1492     |            |       | 92.81

Nlocal:            170 ave         536 max           0 min
Histogram: 8 0 0 0 0 0 0 0 0 4
Nghost:            310 ave         956 max           0 min
Histogram: 8 0 0 0 0 0 0 0 0 4
Neighs:              0 ave           0 max           0 min
Histogram: 12 0 0 0 0 0 0 0 0 0

Total # of neighbors = 0
Ave neighs/atom = 0
Neighbor list builds = 0
Dangerous builds = 0
#6----define computes------
variable nums equal count(all) #计算原子数目
variable toval equal 13.369*13.369*lz #计算系统总体积，单层石墨烯厚度为0.335nm
variable vol equal ${toval} #体系的初始体积
variable vol equal 22103.2778683267 
variable vatom equal v_vol/v_nums #单个原子体积
compute 1 all stress/atom NULL #计算体系中单原子应力
compute xalls all reduce sum c_1[1]
variable xstress equal (c_xalls)/(v_toval*10000)
compute yalls all reduce sum c_1[2]
variable ystress equal (c_yalls)/(v_toval*10000)
compute zalls all reduce sum c_1[3]
variable zstress equal (c_zalls)/(v_toval*10000)
#7---------relaxation-------------------------
timestep ${tstep}
timestep 0.001
#------------5 温度初始化------------------------------
velocity all create 300 4928459 dist gaussian units box
#------------------------------------------------------
dump   1 all atom 100 all-cy.lammpstrj
#fix    1 all npt temp 300 300  0.1 aniso 0 0  drag 1  #三个方向独立控压
fix  s all npt temp ${temperature} ${temperature} 0.1 y ${pressure} ${pressure} 10 x ${pressure} ${pressure} 10
fix  s all npt temp 300 ${temperature} 0.1 y ${pressure} ${pressure} 10 x ${pressure} ${pressure} 10
fix  s all npt temp 300 300 0.1 y ${pressure} ${pressure} 10 x ${pressure} ${pressure} 10
fix  s all npt temp 300 300 0.1 y 0 ${pressure} 10 x ${pressure} ${pressure} 10
fix  s all npt temp 300 300 0.1 y 0 0 10 x ${pressure} ${pressure} 10
fix  s all npt temp 300 300 0.1 y 0 0 10 x 0 ${pressure} 10
fix  s all npt temp 300 300 0.1 y 0 0 10 x 0 0 10
thermo                1000
thermo_modify       lost ignore
compute  2 all pe/atom
compute  pe all reduce sum c_2
variable PE equal "c_pe"
fix    pe all print 100 "${PE} " file PE.txt screen no
thermo  ${thermalstep}
thermo  100
#thermo_style  custom step pe ke etotal lx ly lz
run   ${relaxtime}
run   0
Per MPI rank memory allocation (min/avg/max) = 8.899 | 9.223 | 9.87 Mbytes
   Step          Temp          E_pair         E_mol          TotEng         Press          Volume    
         1   300           -15095.205      0             -15016.136      16.673542      4946737.1    
Loop time of 0.0110325 on 12 procs for 0 steps with 2040 atoms

72.8% CPU use with 12 MPI tasks x 1 OpenMP threads

MPI task timing breakdown:
Section |  min time  |  avg time  |  max time  |%varavg| %total
---------------------------------------------------------------
Pair    | 0          | 0          | 0          |   0.0 |  0.00
Neigh   | 0          | 0          | 0          |   0.0 |  0.00
Comm    | 0          | 0          | 0          |   0.0 |  0.00
Output  | 0          | 0          | 0          |   0.0 |  0.00
Modify  | 0          | 0          | 0          |   0.0 |  0.00
Other   |            | 0.01103    |            |       |100.00

Nlocal:            170 ave         510 max           0 min
Histogram: 8 0 0 0 0 0 0 0 0 4
Nghost:            310 ave         930 max           0 min
Histogram: 8 0 0 0 0 0 0 0 0 4
Neighs:              0 ave           0 max           0 min
Histogram: 12 0 0 0 0 0 0 0 0 0

Total # of neighbors = 0
Ave neighs/atom = 0
Neighbor list builds = 0
Dangerous builds = 0
#8 -------tension-----------------------------
unfix s
undump  1
unfix  pe
reset_timestep 0
fix avestress all ave/atom 1 ${dumpstep} ${dumpstep} c_1[1] c_1[2] c_1[3] c_1[4] c_1[5] c_1[6]
fix avestress all ave/atom 1 1000 ${dumpstep} c_1[1] c_1[2] c_1[3] c_1[4] c_1[5] c_1[6]
fix avestress all ave/atom 1 1000 1000 c_1[1] c_1[2] c_1[3] c_1[4] c_1[5] c_1[6]

#-----calculation of strain and Cumulative compression--------
variable                tmp equal "lz"
variable                L0 equal ${tmp}
variable                L0 equal 123.668427
variable                strain equal "(lz - v_L0)/v_L0"
variable                Cumulativels equal "(lz - v_L0)/10"
fix Step all print 100 "${strain} ${Cumulativels} ${zstress}" file grapoten.txt screen no

dump 2 all custom ${dumpstep} tension.xyz type x y z f_avestress[1] f_avestress[2] f_avestress[3] f_avestress[4] f_avestress[5] f_avestress[6]
dump 2 all custom 1000 tension.xyz type x y z f_avestress[1] f_avestress[2] f_avestress[3] f_avestress[4] f_avestress[5] f_avestress[6]

fix  1 all npt temp ${temperature} ${temperature} 0.1 y ${pressure} ${pressure} 10 x ${pressure} ${pressure} 10
fix  1 all npt temp 300 ${temperature} 0.1 y ${pressure} ${pressure} 10 x ${pressure} ${pressure} 10
fix  1 all npt temp 300 300 0.1 y ${pressure} ${pressure} 10 x ${pressure} ${pressure} 10
fix  1 all npt temp 300 300 0.1 y 0 ${pressure} 10 x ${pressure} ${pressure} 10
fix  1 all npt temp 300 300 0.1 y 0 0 10 x ${pressure} ${pressure} 10
fix  1 all npt temp 300 300 0.1 y 0 0 10 x 0 ${pressure} 10
fix  1 all npt temp 300 300 0.1 y 0 0 10 x 0 0 10

thermo_style custom step pe ke etotal lx ly lz
WARNING: New thermo_style command, previous thermo_modify settings will be lost (src/output.cpp:903)
fix   2 all deform 1 z erate ${deformrate} remap x units box
fix   2 all deform 1 z erate 0.005 remap x units box
fix   3 all ave/time 2 500 1000 v_xstress v_ystress v_zstress file pressure.out
run   ${totaltime}
run   100000
WARNING: Dump 2 includes no atom IDs and is not sorted by ID. This may complicate post-processing tasks or visualization (src/dump.cpp:221)
Per MPI rank memory allocation (min/avg/max) = 10.4 | 10.72 | 11.37 Mbytes
   Step         PotEng         KinEng         TotEng           Lx             Ly             Lz      
         0  -15095.205      79.068431     -15016.136      200            200            123.66843    
       100  -15047.948      39.22772      -15008.72       200.00115      200.00572      123.73026    
       200  -15049.142      51.386581     -14997.755      199.99488      200.00413      123.7921     
       300  -15040.614      55.920123     -14984.694      199.99613      200.01024      123.85393    
       400  -15030.799      60.306839     -14970.492      199.98889      200.00764      123.91576    
       500  -15026.096      69.90834      -14956.187      199.99188      200.01497      123.9776     
       600  -15019.357      76.215988     -14943.141      199.98216      200.01001      124.03943    
       700  -15013.757      80.527421     -14933.229      199.98621      200.01902      124.10127    
       800  -15010.783      81.64312      -14929.14       199.97453      200.01406      124.1631     
       900  -15015.155      82.370629     -14932.784      199.97684      200.023        124.22493    
      1000  -15018.316      78.867004     -14939.449      199.96616      200.0186       124.28677    
      1100  -15019.932      77.387598     -14942.544      199.96684      200.02508      124.3486     
      1200  -15017.908      78.198789     -14939.709      199.9573       200.02108      124.41044    
      1300  -15014.833      80.823965     -14934.009      199.9584       200.02704      124.47227    
      1400  -15011.503      80.888133     -14930.615      199.94808      200.02249      124.53411    
      1500  -15012.524      80.401618     -14932.122      199.94774      200.02812      124.59594    
      1600  -15013.856      77.758706     -14936.097      199.93773      200.02339      124.65777    
      1700  -15013.51       75.589775     -14937.92       199.93686      200.02794      124.71961    
      1800  -15014.07       78.028483     -14936.041      199.92697      200.0228       124.78144    
      1900  -15009.675      77.537252     -14932.138      199.92669      200.02747      124.84328    
      2000  -15011.085      82.150888     -14928.934      199.91531      200.02126      124.90511    
      2100  -15009.383      80.727303     -14928.656      199.91482      200.02698      124.96695    
      2200  -15009.817      78.581786     -14931.235      199.90233      200.02159      125.02878    
      2300  -15011.046      77.104164     -14933.942      199.90034      200.02673      125.09061    
      2400  -15011.788      77.913658     -14933.874      199.88737      200.02082      125.15245    
      2500  -15009.655      79.216421     -14930.439      199.88584      200.02581      125.21428    
      2600  -15007.013      80.979104     -14926.034      199.87208      200.01937      125.27612    
      2700  -15005.338      80.717178     -14924.62       199.87035      200.02494      125.33795    
      2800  -15006.055      79.352243     -14926.702      199.85586      200.01757      125.39978    
      2900  -15005.757      76.61122      -14929.146      199.85349      200.02191      125.46162    
      3000  -15005.719      76.93157      -14928.787      199.83976      200.01463      125.52345    
      3100  -15002.881      76.912966     -14925.968      199.83778      200.01844      125.58529    
      3200  -15005.457      83.035615     -14922.422      199.82371      200.00931      125.64712    
      3300  -15001.764      80.849028     -14920.914      199.82224      200.01321      125.70896    
      3400  -15002.729      81.226935     -14921.502      199.80753      200.00394      125.77079    
      3500  -15001.067      78.033191     -14923.033      199.80512      200.00702      125.83262    
      3600  -15001.86       78.383113     -14923.477      199.79012      199.99735      125.89446    
      3700  -14999.147      77.057069     -14922.09       199.78747      199.9998       125.95629    
      3800  -14998.774      80.258542     -14918.515      199.77153      199.98933      126.01813    
      3900  -14996.192      80.902275     -14915.29       199.76866      199.99253      126.07996    
      4000  -14994.625      80.140983     -14914.484      199.75198      199.98214      126.1418     
      4100  -14994.638      78.574237     -14916.064      199.74835      199.98475      126.20363    
      4200  -14996.324      78.91095      -14917.413      199.73217      199.97378      126.26546    
      4300  -14993.191      76.976289     -14916.215      199.72819      199.97508      126.3273     
      4400  -14992.68       79.90616      -14912.774      199.71267      199.96422      126.38913    
      4500  -14989.279      79.105174     -14910.174      199.7076       199.96385      126.45097    
      4600  -14988.277      79.274649     -14909.003      199.69205      199.95343      126.5128     
      4700  -14988.14       78.731439     -14909.409      199.68479      199.95237      126.57464    
      4800  -14986.716      76.963974     -14909.752      199.66917      199.94316      126.63647    
      4900  -14987.141      78.107351     -14909.034      199.66034      199.94112      126.6983     
      5000  -14985.178      79.123776     -14906.054      199.64411      199.93336      126.76014    
      5100  -14981.92       79.842559     -14902.077      199.63316      199.93121      126.82197    
      5200  -14982.075      81.783336     -14900.291      199.61589      199.92412      126.88381    
      5300  -14979.965      77.799774     -14902.166      199.60343      199.92222      126.94564    
      5400  -14982.411      79.828162     -14902.583      199.58545      199.91465      127.00747    
      5500  -14980.432      79.763384     -14900.668      199.57344      199.91245      127.06931    
      5600  -14975.234      77.670713     -14897.563      199.55436      199.9031       127.13114    
      5700  -14974.652      79.752396     -14894.9        199.54215      199.90085      127.19298    
      5800  -14974.783      80.868291     -14893.915      199.52249      199.89098      127.25481    
      5900  -14972.561      76.523682     -14896.038      199.50916      199.88702      127.31665    
      6000  -14973.177      78.079141     -14895.098      199.49043      199.87676      127.37848    
      6100  -14971.054      79.471429     -14891.583      199.47765      199.87168      127.44031    
      6200  -14967          78.962518     -14888.038      199.45876      199.85885      127.50215    
      6300  -14966.918      80.233373     -14886.685      199.44743      199.85311      127.56398    
      6400  -14966.331      80.239586     -14886.092      199.42805      199.83917      127.62582    
      6500  -14964.973      79.229934     -14885.743      199.41479      199.83181      127.68765    
      6600  -14963.139      78.016736     -14885.122      199.39581      199.81839      127.74949    
      6700  -14961.426      76.28026      -14885.146      199.38133      199.80969      127.81132    
      6800  -14962.15       77.896988     -14884.253      199.36177      199.79654      127.87315    
      6900  -14959.211      79.53073      -14879.68       199.34561      199.78695      127.93499    
      7000  -14956.023      80.261859     -14875.761      199.32542      199.77418      127.99682    
      7100  -14953.638      79.663268     -14873.975      199.30712      199.76364      128.05866    
      7200  -14953.495      79.508422     -14873.986      199.28683      199.75198      128.12049    
      7300  -14953.837      78.426795     -14875.41       199.26537      199.74019      128.18232    
      7400  -14950.896      75.896979     -14874.999      199.24511      199.72948      128.24416    
      7500  -14946.367      77.904794     -14868.462      199.22177      199.71626      128.30599    
      7600  -14943.871      78.702464     -14865.169      199.20095      199.70609      128.36783    
      7700  -14944.495      80.009443     -14864.486      199.17541      199.69192      128.42966    
      7800  -14942.327      77.740048     -14864.587      199.15323      199.68094      128.4915     
      7900  -14942.229      78.60147      -14863.627      199.12646      199.66595      128.55333    
      8000  -14939.216      78.226898     -14860.989      199.10398      199.65559      128.61516    
      8100  -14935.463      79.910635     -14855.552      199.0751       199.63892      128.677      
      8200  -14933.761      80.751962     -14853.009      199.05269      199.62949      128.73883    
      8300  -14931.133      77.791211     -14853.342      199.02138      199.61108      128.80067    
      8400  -14931.795      78.211909     -14853.583      198.99836      199.60075      128.8625     
      8500  -14931.25       79.722306     -14851.527      198.96628      199.58081      128.92434    
      8600  -14927.792      79.221493     -14848.57       198.94292      199.56926      128.98617    
      8700  -14926.245      81.013997     -14845.231      198.90962      199.54812      129.048      
      8800  -14920.329      78.564873     -14841.764      198.88431      199.53526      129.10984    
      8900  -14918.315      80.474933     -14837.84       198.85063      199.51367      129.17167    
      9000  -14918.359      80.559023     -14837.8        198.82431      199.49853      129.23351    
      9100  -14918.499      79.827056     -14838.672      198.79051      199.47509      129.29534    
      9200  -14916.837      79.513646     -14837.323      198.76383      199.45868      129.35717    
      9300  -14913.277      78.487797     -14834.789      198.72874      199.43372      129.41901    
      9400  -14909.277      79.199013     -14830.078      198.70066      199.4162       129.48084    
      9500  -14906.175      80.888125     -14825.286      198.6637       199.39074      129.54268    
      9600  -14904.728      79.800273     -14824.927      198.63339      199.37196      129.60451    
      9700  -14903.603      78.818782     -14824.784      198.59542      199.34553      129.66635    
      9800  -14901.829      78.503376     -14823.325      198.5625       199.32527      129.72818    
      9900  -14900.212      78.878831     -14821.333      198.52309      199.29951      129.79001    
     10000  -14897.761      79.010022     -14818.751      198.48679      199.27773      129.85185    
     10100  -14895.884      81.5082       -14814.376      198.44573      199.25229      129.91368    
     10200  -14891.313      80.480208     -14810.833      198.40717      199.23014      129.97552    
     10300  -14888.719      78.240126     -14810.479      198.36408      199.20401      130.03735    
     10400  -14889.798      78.539636     -14811.258      198.32257      199.18028      130.09919    
     10500  -14888.121      79.142326     -14808.979      198.27786      199.15416      130.16102    
     10600  -14884.104      78.853254     -14805.251      198.23326      199.12887      130.22285    
     10700  -14879.422      79.519095     -14799.903      198.18648      199.1021       130.28469    
     10800  -14876.236      79.785454     -14796.451      198.14024      199.07592      130.34652    
     10900  -14874.064      78.931967     -14795.132      198.09152      199.04662      130.40836    
     11000  -14874.104      80.099776     -14794.004      198.04346      199.01853      130.47019    
     11100  -14872.54       79.312474     -14793.227      197.99364      198.98865      130.53202    
     11200  -14871.085      79.135176     -14791.95       197.9432       198.95816      130.59386    
     11300  -14867.117      78.330951     -14788.786      197.89136      198.92661      130.65569    
     11400  -14862.371      79.482032     -14782.889      197.83976      198.89512      130.71753    
     11500  -14860.193      80.923903     -14779.269      197.78607      198.86043      130.77936    
     11600  -14857.843      78.951656     -14778.891      197.73365      198.82702      130.8412     
     11700  -14856.532      78.201603     -14778.33       197.67759      198.79         130.90303    
     11800  -14852.466      76.728846     -14775.737      197.62365      198.75498      130.96486    
     11900  -14851.401      79.282366     -14772.118      197.56552      198.71568      131.0267     
     12000  -14848.323      80.400393     -14767.923      197.51073      198.67874      131.08853    
     12100  -14843.986      80.634999     -14763.351      197.45084      198.6366       131.15037    
     12200  -14841.117      81.367836     -14759.749      197.39428      198.59784      131.2122     
     12300  -14839.868      79.265515     -14760.603      197.33184      198.55381      131.27404    
     12400  -14838.342      78.295392     -14760.046      197.27256      198.51363      131.33587    
     12500  -14835.313      78.187719     -14757.125      197.20736      198.4686       131.3977     
     12600  -14832.494      79.837906     -14752.656      197.14543      198.42742      131.45954    
     12700  -14827.623      80.263712     -14747.359      197.07768      198.38149      131.52137    
     12800  -14823.328      79.641622     -14743.687      197.01264      198.33975      131.58321    
     12900  -14823.506      78.745796     -14744.76       196.94049      198.29349      131.64504    
     13000  -14822.086      78.085318     -14744.001      196.87125      198.25166      131.70687    
     13100  -14819.073      78.191934     -14740.881      196.79634      198.20515      131.76871    
     13200  -14815.494      79.522914     -14735.971      196.72393      198.16222      131.83054    
     13300  -14812.739      82.111237     -14730.628      196.64682      198.11472      131.89238    
     13400  -14808.887      80.849284     -14728.037      196.57141      198.06968      131.95421    
     13500  -14806.576      76.831937     -14729.744      196.49202      198.02125      132.01605    
     13600  -14805.149      77.834923     -14727.314      196.41447      197.97466      132.07788    
     13700  -14800.333      78.064834     -14722.268      196.33342      197.92387      132.13971    
     13800  -14798.851      81.669438     -14717.182      196.25531      197.87544      132.20155    
     13900  -14794.926      80.800026     -14714.126      196.17386      197.82228      132.26338    
     14000  -14792.083      78.350109     -14713.732      196.0937       197.77002      132.32522    
     14100  -14790.922      77.24353      -14713.679      196.01277      197.71678      132.38705    
     14200  -14786.057      76.623477     -14709.434      195.92939      197.66012      132.44889    
     14300  -14784.094      79.734695     -14704.359      195.84946      197.60655      132.51072    
     14400  -14779.424      79.280406     -14700.144      195.76394      197.54627      132.57255    
     14500  -14775.799      79.202267     -14696.597      195.68354      197.49163      132.63439    
     14600  -14772.246      78.991013     -14693.255      195.59576      197.43019      132.69622    
     14700  -14767.506      76.461392     -14691.045      195.5144       197.37509      132.75806    
     14800  -14769.165      79.455822     -14689.709      195.42436      197.31159      132.81989    
     14900  -14766.888      79.239186     -14687.649      195.34272      197.25653      132.88172    
     15000  -14761.241      78.811056     -14682.43       195.25076      197.19124      132.94356    
     15100  -14757.198      80.563919     -14676.634      195.16801      197.13575      133.00539    
     15200  -14753.113      79.740912     -14673.372      195.07361      197.07013      133.06723    
     15300  -14750.121      78.5576       -14671.563      194.989        197.01512      133.12906    
     15400  -14748.391      79.323533     -14669.068      194.89218      196.94902      133.1909     
     15500  -14745.501      79.824495     -14665.677      194.80632      196.89441      133.25273    
     15600  -14742.559      80.336663     -14662.223      194.70801      196.82816      133.31456    
     15700  -14737.438      78.608096     -14658.83       194.62048      196.77389      133.3764     
     15800  -14735.002      79.723628     -14655.279      194.52184      196.70938      133.43823    
     15900  -14732.515      80.32614      -14652.188      194.43064      196.65335      133.50007    
     16000  -14729.128      79.86463      -14649.263      194.33269      196.59098      133.5619     
     16100  -14723.564      77.198006     -14646.366      194.23948      196.53286      133.62374    
     16200  -14721.561      78.594925     -14642.966      194.14279      196.47153      133.68557    
     16300  -14717.591      79.838743     -14637.752      194.0485       196.41201      133.7474     
     16400  -14714.39       82.261905     -14632.128      193.9526       196.35104      133.80924    
     16500  -14709.725      80.4512       -14629.274      193.85775      196.29023      133.87107    
     16600  -14710.088      80.184124     -14629.904      193.76427      196.22904      133.93291    
     16700  -14705.953      79.122753     -14626.831      193.67017      196.16546      133.99474    
     16800  -14701.529      79.28054      -14622.249      193.57984      196.10471      134.05657    
     16900  -14698.324      81.734936     -14616.589      193.48501      196.03806      134.11841    
     17000  -14691.529      79.733327     -14611.795      193.39834      195.97851      134.18024    
     17100  -14687.519      79.878011     -14607.641      193.30296      195.90947      134.24208    
     17200  -14685.643      79.491326     -14606.152      193.21852      195.84985      134.30391    
     17300  -14684.546      79.1704       -14605.375      193.12482      195.7801       134.36575    
     17400  -14680.047      77.595025     -14602.452      193.04153      195.72016      134.42758    
     17500  -14676.216      79.271695     -14596.944      192.94906      195.65108      134.48941    
     17600  -14669.586      79.148065     -14590.438      192.86602      195.59236      134.55125    
     17700  -14665.454      78.533378     -14586.92       192.77297      195.52433      134.61308    
     17800  -14663.368      78.710696     -14584.657      192.68945      195.4669       134.67492    
     17900  -14661.911      79.750498     -14582.16       192.59673      195.40103      134.73675    
     18000  -14658.162      78.65794      -14579.504      192.51232      195.34484      134.79859    
     18100  -14654.635      78.891073     -14575.744      192.41962      195.28237      134.86042    
     18200  -14649.448      80.233832     -14569.214      192.33434      195.22825      134.92225    
     18300  -14643.346      79.408999     -14563.937      192.24184      195.16796      134.98409    
     18400  -14639.929      77.786592     -14562.143      192.1566       195.11472      135.04592    
     18500  -14640.86       79.590303     -14561.269      192.06594      195.05609      135.10776    
     18600  -14634.905      77.117877     -14557.787      191.98002      195.00207      135.16959    
     18700  -14631.716      78.691627     -14553.024      191.89261      194.94636      135.23142    
     18800  -14627.044      79.514854     -14547.529      191.80621      194.89044      135.29326    
     18900  -14621.19       80.407521     -14540.783      191.7237       194.8369       135.35509    
     19000  -14617.255      82.747047     -14534.508      191.63875      194.7794       135.41693    
     19100  -14617.745      82.583122     -14535.162      191.5588       194.72533      135.47876    
     19200  -14612.084      78.472518     -14533.611      191.47637      194.66774      135.5406     
     19300  -14609.442      78.794165     -14530.647      191.39901      194.61427      135.60243    
     19400  -14606.406      79.789621     -14526.617      191.31837      194.5564       135.66426    
     19500  -14601.052      79.931318     -14521.121      191.24371      194.50349      135.7261     
     19600  -14595.335      80.21804      -14515.117      191.16458      194.44468      135.78793    
     19700  -14590.526      79.99351      -14510.532      191.09247      194.39215      135.84977    
     19800  -14587.621      77.948727     -14509.672      191.0148       194.33389      135.9116     
     19900  -14587.219      79.055657     -14508.163      190.94418      194.28281      135.97344    
     20000  -14583.831      80.141222     -14503.69       190.86782      194.22603      136.03527    
     20100  -14578.608      81.558119     -14497.05       190.79834      194.17598      136.0971     
     20200  -14571.538      79.652852     -14491.885      190.7234       194.12089      136.15894    
     20300  -14567.767      79.301128     -14488.466      190.6538       194.07181      136.22077    
     20400  -14565.347      79.830395     -14485.516      190.58016      194.01943      136.28261    
     20500  -14559.477      77.19488      -14482.282      190.50932      193.97108      136.34444    
     20600  -14556.956      78.657604     -14478.298      190.43689      193.92216      136.40627    
     20700  -14550.847      78.967383     -14471.88       190.36515      193.8742       136.46811    
     20800  -14546.523      81.419798     -14465.103      190.2955       193.82847      136.52994    
     20900  -14543.504      80.723846     -14462.781      190.22342      193.78036      136.59178    
     21000  -14539.343      77.865876     -14461.477      190.15545      193.73687      136.65361    
     21100  -14537.564      79.543011     -14458.021      190.08339      193.68927      136.71545    
     21200  -14530.695      76.909345     -14453.785      190.01743      193.64728      136.77728    
     21300  -14526.447      79.126131     -14447.321      189.94707      193.5994       136.83911    
     21400  -14522.331      81.8573       -14440.474      189.88375      193.55816      136.90095    
     21500  -14519.194      81.680825     -14437.513      189.81379      193.50932      136.96278    
     21600  -14515.346      78.663385     -14436.683      189.75329      193.46923      137.02462    
     21700  -14512.08       79.378522     -14432.702      189.6845       193.41945      137.08645    
     21800  -14506.679      78.762742     -14427.917      189.62778      193.38055      137.14829    
     21900  -14502.416      79.75391      -14422.662      189.56119      193.32946      137.21012    
     22000  -14496.543      78.928157     -14417.615      189.50646      193.28895      137.27195    
     22100  -14491.084      77.494134     -14413.59       189.44331      193.23896      137.33379    
     22200  -14491.671      79.763319     -14411.908      189.3879       193.19646      137.39562    
     22300  -14487.769      78.611575     -14409.157      189.32806      193.14916      137.45746    
     22400  -14480.736      77.279035     -14403.457      189.27262      193.10619      137.51929    
     22500  -14474.439      79.027421     -14395.411      189.21462      193.0596       137.58113    
     22600  -14470.243      78.93138      -14391.312      189.16046      193.01742      137.64296    
     22700  -14467.159      78.379027     -14388.78       189.10247      192.97211      137.70479    
     22800  -14465.362      79.077425     -14386.285      189.04797      192.93081      137.76663    
     22900  -14461.636      78.937943     -14382.698      188.9911       192.88831      137.82846    
     23000  -14455.841      80.107175     -14375.734      188.93455      192.84701      137.8903     
     23100  -14452.863      84.258278     -14368.605      188.88011      192.80881      137.95213    
     23200  -14446.734      81.850035     -14364.884      188.82038      192.76664      138.01396    
     23300  -14441.706      78.444651     -14363.261      188.76662      192.73249      138.0758     
     23400  -14436.894      76.921404     -14359.972      188.70489      192.69177      138.13763    
     23500  -14435.357      80.472477     -14354.884      188.65215      192.66101      138.19947    
     23600  -14429.808      80.271654     -14349.536      188.58927      192.62074      138.2613     
     23700  -14424.618      79.749611     -14344.868      188.53715      192.59125      138.32314    
     23800  -14418.936      78.446336     -14340.49       188.47497      192.55102      138.38497    
     23900  -14414.925      78.336344     -14336.588      188.42373      192.5221       138.4468     
     24000  -14410.846      78.551623     -14332.295      188.36247      192.48166      138.50864    
     24100  -14404.465      77.50671      -14326.959      188.31315      192.45191      138.57047    
     24200  -14400.356      80.352001     -14320.004      188.25525      192.41095      138.63231    
     24300  -14395.556      80.582154     -14314.974      188.20784      192.37915      138.69414    
     24400  -14392.567      79.462145     -14313.104      188.15411      192.33745      138.75598    
     24500  -14388.543      77.199714     -14311.343      188.1073       192.30154      138.81781    
     24600  -14384.562      78.472499     -14306.09       188.05773      192.26087      138.87964    
     24700  -14378.808      79.212677     -14299.596      188.01169      192.22195      138.94148    
     24800  -14372.481      78.895401     -14293.585      187.96554      192.18158      139.00331    
     24900  -14367.565      78.614011     -14288.951      187.92018      192.14076      139.06515    
     25000  -14366.912      78.939546     -14287.972      187.87594      192.10078      139.12698    
     25100  -14362.842      77.170352     -14285.672      187.82998      192.05947      139.18881    
     25200  -14357.27       78.703807     -14278.566      187.78711      192.02197      139.25065    
     25300  -14351.476      80.048684     -14271.427      187.73981      191.98092      139.31248    
     25400  -14345.823      79.813857     -14266.01       187.69737      191.94566      139.37432    
     25500  -14341.277      79.54519      -14261.732      187.64782      191.90478      139.43615    
     25600  -14337.274      77.502848     -14259.771      187.6055       191.87218      139.49799    
     25700  -14333.698      76.825706     -14256.872      187.55359      191.8325       139.55982    
     25800  -14326.478      76.688532     -14249.79       187.51052      191.80368      139.62165    
     25900  -14322.164      79.688723     -14242.475      187.45614      191.76571      139.68349    
     26000  -14316.808      78.946636     -14237.862      187.41249      191.73962      139.74532    
     26100  -14313.626      79.784037     -14233.842      187.35734      191.7031       139.80716    
     26200  -14308.606      77.755798     -14230.85       187.31304      191.67772      139.86899    
     26300  -14304.45       76.874768     -14227.575      187.25841      191.64236      139.93083    
     26400  -14301.098      78.595243     -14222.502      187.21292      191.61665      139.99266    
     26500  -14293.672      79.618304     -14214.053      187.15966      191.58224      140.05449    
     26600  -14286.838      78.846597     -14207.992      187.11457      191.55516      140.11633    
     26700  -14282.849      79.212641     -14203.636      187.06438      191.52097      140.17816    
     26800  -14279.105      77.786035     -14201.319      187.01946      191.49107      140.24       
     26900  -14277.369      78.465735     -14198.903      186.97268      191.45783      140.30183    
     27000  -14270.433      77.435047     -14192.998      186.92702      191.42456      140.36366    
     27100  -14268.44       81.701096     -14186.739      186.88505      191.39347      140.4255     
     27200  -14260.966      79.976598     -14180.99       186.83815      191.35541      140.48733    
     27300  -14253.587      78.198486     -14175.389      186.80026      191.32528      140.54917    
     27400  -14249.632      80.224694     -14169.408      186.75353      191.2845       140.611      
     27500  -14244.257      81.663456     -14162.594      186.71753      191.2539       140.67284    
     27600  -14237.76       80.785403     -14156.975      186.67159      191.21294      140.73467    
     27700  -14234.094      78.577033     -14155.517      186.63596      191.18234      140.7965     
     27800  -14230.936      78.334602     -14152.601      186.59054      191.14086      140.85834    
     27900  -14225.259      77.400989     -14147.858      186.55582      191.1104       140.92017    
     28000  -14220.166      79.131209     -14141.035      186.50994      191.06878      140.98201    
     28100  -14212.141      78.739024     -14133.402      186.47558      191.03907      141.04384    
     28200  -14209.858      81.519376     -14128.339      186.42973      190.99934      141.10568    
     28300  -14205.91       77.370974     -14128.539      186.39162      190.96854      141.16751    
     28400  -14200.756      77.005477     -14123.75       186.34786      190.93331      141.22934    
     28500  -14195.217      78.836877     -14116.38       186.30636      190.90157      141.29118    
     28600  -14187.193      77.718104     -14109.474      186.26414      190.87073      141.35301    
     28700  -14185.016      80.64312      -14104.373      186.21831      190.83843      141.41485    
     28800  -14180.326      77.57839      -14102.748      186.17664      190.81151      141.47668    
     28900  -14176.089      76.8545       -14099.234      186.12731      190.77807      141.53851    
     29000  -14172.788      79.768872     -14093.019      186.08713      190.75467      141.60035    
     29100  -14163.726      77.482264     -14086.243      186.03548      190.71965      141.66218    
     29200  -14158.276      78.12832      -14080.148      185.9971       190.69828      141.72402    
     29300  -14153.509      78.60412      -14074.905      185.9446       190.66259      141.78585    
     29400  -14150.773      79.75217      -14071.021      185.90591      190.64111      141.84769    
     29500  -14146.199      76.650758     -14069.548      185.85516      190.60623      141.90952    
     29600  -14141.114      76.768563     -14064.345      185.81533      190.58171      141.97135    
     29700  -14133.481      77.391037     -14056.09       185.76868      190.54743      142.03319    
     29800  -14129.328      79.709224     -14049.618      185.72868      190.51891      142.09502    
     29900  -14122.369      78.372837     -14043.996      185.68555      190.48506      142.15686    
     30000  -14118.412      78.915371     -14039.496      185.64618      190.45295      142.21869    
     30100  -14116.728      79.376708     -14037.351      185.60594      190.41878      142.28053    
     30200  -14109.952      76.147014     -14033.805      185.56708      190.38418      142.34236    
     30300  -14103.448      77.496561     -14025.951      185.53012      190.35042      142.40419    
     30400  -14097.049      78.139158     -14018.91       185.49067      190.31249      142.46603    
     30500  -14093.885      80.369857     -14013.515      185.45643      190.27963      142.52786    
     30600  -14089.022      80.686968     -14008.335      185.41543      190.23965      142.5897     
     30700  -14082.958      78.365308     -14004.593      185.38212      190.2079       142.65153    
     30800  -14080.196      79.022115     -14001.174      185.33994      190.16767      142.71336    
     30900  -14073.839      77.776655     -13996.062      185.30673      190.13724      142.7752     
     31000  -14067.126      79.908364     -13987.217      185.26374      190.09785      142.83703    
     31100  -14059.383      78.401776     -13980.981      185.22977      190.06901      142.89887    
     31200  -14056.87       80.446553     -13976.424      185.18528      190.0316       142.9607     
     31300  -14052.839      79.128275     -13973.71       185.14859      190.00364      143.02254    
     31400  -14047.947      77.329608     -13970.617      185.10347      189.96968      143.08437    
     31500  -14039.424      76.363568     -13963.06       185.06313      189.94142      143.1462     
     31600  -14034.947      80.637336     -13954.309      185.01876      189.91071      143.20804    
     31700  -14027.526      78.167991     -13949.358      184.97517      189.8818       143.26987    
     31800  -14024.155      78.431243     -13945.724      184.93122      189.85427      143.33171    
     31900  -14019.333      77.085987     -13942.247      184.88419      189.82441      143.39354    
     32000  -14015.515      78.256888     -13937.258      184.84233      189.80001      143.45538    
     32100  -14008.968      80.491089     -13928.476      184.79347      189.76837      143.51721    
     32200  -14002.377      80.780309     -13921.597      184.75283      189.74459      143.57904    
     32300  -13996.758      79.321788     -13917.436      184.70492      189.71144      143.64088    
     32400  -13992.419      78.100726     -13914.319      184.66427      189.68565      143.70271    
     32500  -13988.196      78.539885     -13909.656      184.61862      189.65216      143.76455    
     32600  -13981.477      79.928323     -13901.548      184.57876      189.62414      143.82638    
     32700  -13974.957      81.601176     -13893.356      184.53552      189.58959      143.88821    
     32800  -13970.013      80.136225     -13889.877      184.49789      189.55903      143.95005    
     32900  -13967.831      80.655962     -13887.175      184.45617      189.52228      144.01188    
     33000  -13961.392      78.555718     -13882.836      184.41966      189.48927      144.07372    
     33100  -13955.987      79.256605     -13876.731      184.38108      189.45295      144.13555    
     33200  -13948.033      80.610739     -13867.423      184.34343      189.41667      144.19739    
     33300  -13940.235      78.755981     -13861.479      184.30793      189.38102      144.25922    
     33400  -13937.094      79.407951     -13857.686      184.26931      189.34213      144.32105    
     33500  -13933.459      79.499228     -13853.959      184.23531      189.30728      144.38289    
     33600  -13927.613      78.662917     -13848.95       184.19561      189.26769      144.44472    
     33700  -13922.304      78.847889     -13843.456      184.16199      189.23436      144.50656    
     33800  -13917.964      80.364388     -13837.599      184.11983      189.19442      144.56839    
     33900  -13910.442      78.369177     -13832.073      184.08586      189.16399      144.63023    
     34000  -13906.527      80.218015     -13826.309      184.04085      189.12439      144.69206    
     34100  -13900.15       79.406359     -13820.744      184.00583      189.09594      144.75389    
     34200  -13894.547      79.348507     -13815.198      183.9599       189.05906      144.81573    
     34300  -13889.631      80.029053     -13809.602      183.92078      189.03036      144.87756    
     34400  -13883.265      80.134862     -13803.13       183.87602      188.99841      144.9394     
     34500  -13877.712      82.055485     -13795.657      183.83211      188.96863      145.00123    
     34600  -13869.942      80.240677     -13789.702      183.7884       188.94033      145.06306    
     34700  -13866.909      79.31481      -13787.594      183.74092      188.9087       145.1249     
     34800  -13862.617      78.817537     -13783.8        183.69857      188.88281      145.18673    
     34900  -13856.895      79.183721     -13777.711      183.64922      188.84986      145.24857    
     35000  -13849.33       79.201867     -13770.128      183.60822      188.82508      145.3104     
     35100  -13842.36       80.549311     -13761.811      183.55851      188.79085      145.37224    
     35200  -13838.581      81.781275     -13756.8        183.5189       188.76603      145.43407    
     35300  -13833.105      80.350946     -13752.754      183.47048      188.73035      145.4959     
     35400  -13827.919      79.580921     -13748.339      183.43092      188.70272      145.55774    
     35500  -13821.257      77.423986     -13743.833      183.38514      188.66647      145.61957    
     35600  -13818.056      78.728904     -13739.328      183.34666      188.63586      145.68141    
     35700  -13812.509      79.557465     -13732.951      183.30318      188.59817      145.74324    
     35800  -13804.785      80.718795     -13724.067      183.26569      188.56546      145.80508    
     35900  -13796.028      78.042274     -13717.986      183.22519      188.52772      145.86691    
     36000  -13794.133      79.951072     -13714.182      183.18693      188.49079      145.92874    
     36100  -13788.078      77.225378     -13710.852      183.15003      188.45412      145.99058    
     36200  -13783.161      77.933145     -13705.228      183.11007      188.41366      146.05241    
     36300  -13777.04       78.242807     -13698.797      183.07597      188.3787       146.11425    
     36400  -13770.964      79.149092     -13691.815      183.0342       188.33631      146.17608    
     36500  -13765.253      80.875492     -13684.377      183.0001       188.30196      146.23791    
     36600  -13757.779      81.186352     -13676.592      182.95811      188.26009      146.29975    
     36700  -13751.382      80.511083     -13670.871      182.9226       188.22594      146.36158    
     36800  -13748.303      78.987479     -13669.316      182.8796       188.18625      146.42342    
     36900  -13744.692      79.31926      -13665.373      182.84125      188.15251      146.48525    
     37000  -13739.654      79.969468     -13659.685      182.7988       188.11674      146.54709    
     37100  -13731.001      79.057512     -13651.944      182.75564      188.08204      146.60892    
     37200  -13722.399      78.737716     -13643.662      182.71382      188.05048      146.67075    
     37300  -13717.448      78.798891     -13638.649      182.66652      188.01563      146.73259    
     37400  -13714.641      79.669604     -13634.971      182.62413      187.9868       146.79442    
     37500  -13708.795      79.043351     -13629.752      182.57493      187.9523       146.85626    
     37600  -13703.781      79.861686     -13623.919      182.53115      187.92446      146.91809    
     37700  -13697.743      80.342764     -13617.4        182.48176      187.89161      146.97993    
     37800  -13690.782      79.136849     -13611.645      182.43662      187.86311      147.04176    
     37900  -13684.463      77.170174     -13607.293      182.38801      187.8307       147.10359    
     38000  -13680.883      77.002883     -13603.88       182.34263      187.80083      147.16543    
     38100  -13676.732      78.518715     -13598.214      182.29536      187.76786      147.22726    
     38200  -13668.732      80.014804     -13588.717      182.24978      187.73505      147.2891     
     38300  -13661.223      79.325676     -13581.897      182.20572      187.70278      147.35093    
     38400  -13656.907      79.905652     -13577.001      182.16028      187.66656      147.41276    
     38500  -13650.828      77.660684     -13573.167      182.11899      187.63312      147.4746     
     38600  -13647.559      77.919469     -13569.639      182.0746       187.5942       147.53643    
     38700  -13642.159      76.085229     -13566.074      182.03492      187.55872      147.59827    
     38800  -13635.423      76.599415     -13558.824      181.99258      187.51876      147.6601     
     38900  -13627.504      78.117471     -13549.387      181.95377      187.48099      147.72194    
     39000  -13621.406      79.161623     -13542.245      181.91302      187.43995      147.78377    
     39100  -13617.204      81.121962     -13536.082      181.87477      187.40082      147.8456     
     39200  -13610.807      79.460427     -13531.346      181.83487      187.3594       147.90744    
     39300  -13605.369      77.22171      -13528.147      181.79566      187.3186       147.96927    
     39400  -13600.876      77.627436     -13523.248      181.75713      187.27837      148.03111    
     39500  -13592.733      78.484761     -13514.248      181.71668      187.23751      148.09294    
     39600  -13585.09       78.88275      -13506.207      181.67674      187.19852      148.15478    
     39700  -13581.322      79.581192     -13501.741      181.63532      187.15927      148.21661    
     39800  -13575.854      78.109435     -13497.745      181.59214      187.12018      148.27844    
     39900  -13572.565      79.583335     -13492.982      181.55038      187.08442      148.34028    
     40000  -13561.592      75.730589     -13485.862      181.50411      187.04625      148.40211    
     40100  -13556.143      79.388631     -13476.754      181.46044      187.01283      148.46395    
     40200  -13551.211      80.543254     -13470.668      181.41375      186.97765      148.52578    
     40300  -13546.551      79.104442     -13467.447      181.36647      186.94352      148.58762    
     40400  -13542.475      79.021589     -13463.453      181.31893      186.91057      148.64945    
     40500  -13535.214      77.918669     -13457.295      181.27028      186.87734      148.71128    
     40600  -13528.466      77.797593     -13450.669      181.22186      186.84547      148.77312    
     40700  -13522.153      78.337623     -13443.816      181.17209      186.812        148.83495    
     40800  -13516.449      78.707021     -13437.742      181.12476      186.78074      148.89679    
     40900  -13508.519      76.776183     -13431.743      181.07428      186.74549      148.95862    
     41000  -13505.969      79.7387       -13426.231      181.0289       186.71426      149.02045    
     41100  -13499.295      78.360321     -13420.935      180.97875      186.67736      149.08229    
     41200  -13494.981      78.647108     -13416.334      180.93428      186.64494      149.14412    
     41300  -13489.201      78.235156     -13410.966      180.8861       186.60712      149.20596    
     41400  -13479.764      76.601807     -13403.162      180.8421       186.57211      149.26779    
     41500  -13476.452      81.810375     -13394.641      180.79576      186.53248      149.32963    
     41600  -13467.563      78.732081     -13388.831      180.75302      186.49551      149.39146    
     41700  -13465.049      80.059122     -13384.99       180.70938      186.45537      149.45329    
     41800  -13458.173      77.699371     -13380.473      180.66635      186.4142       149.51513    
     41900  -13452.76       78.299578     -13374.46       180.62712      186.37546      149.57696    
     42000  -13446.577      78.564007     -13368.013      180.58286      186.32996      149.6388     
     42100  -13439.618      78.563535     -13361.054      180.54554      186.29148      149.70063    
     42200  -13434.982      81.231994     -13353.75       180.50124      186.24506      149.76247    
     42300  -13427.039      79.732339     -13347.307      180.46389      186.20603      149.8243     
     42400  -13421.781      78.438082     -13343.343      180.41957      186.16051      149.88613    
     42500  -13417.804      77.604181     -13340.2        180.38001      186.12081      149.94797    
     42600  -13411.959      78.392197     -13333.567      180.33587      186.0771       150.0098     
     42700  -13403.113      77.967016     -13325.146      180.29495      186.03771      150.07164    
     42800  -13397.783      79.366759     -13318.416      180.25076      185.99695      150.13347    
     42900  -13393.116      80.105666     -13313.011      180.20571      185.95726      150.1953     
     43000  -13388.568      80.32886      -13308.239      180.16176      185.92052      150.25714    
     43100  -13381.141      78.152392     -13302.989      180.11267      185.88067      150.31897    
     43200  -13373.668      76.949102     -13296.719      180.0677       185.84668      150.38081    
     43300  -13369.075      80.738938     -13288.336      180.01667      185.80875      150.44264    
     43400  -13361.747      80.560726     -13281.186      179.9703       185.77675      150.50448    
     43500  -13356.873      79.943998     -13276.929      179.91771      185.73943      150.56631    
     43600  -13351.23       77.192239     -13274.038      179.87001      185.70796      150.62814    
     43700  -13346.295      78.010131     -13268.285      179.81806      185.67261      150.68998    
     43800  -13339.507      78.421276     -13261.086      179.76803      185.63869      150.75181    
     43900  -13331.981      78.102792     -13253.878      179.71961      185.60597      150.81365    
     44000  -13327.855      80.278327     -13247.576      179.66751      185.56751      150.87548    
     44100  -13321.935      80.353013     -13241.582      179.62215      185.53557      150.93732    
     44200  -13314.035      78.189912     -13235.845      179.57123      185.49587      150.99915    
     44300  -13308.705      78.509658     -13230.195      179.52598      185.46029      151.06098    
     44400  -13304.193      80.087495     -13224.106      179.47848      185.42063      151.12282    
     44500  -13296.884      79.015275     -13217.869      179.43415      185.38231      151.18465    
     44600  -13290.467      78.808595     -13211.659      179.38943      185.34164      151.24649    
     44700  -13286.187      79.906077     -13206.281      179.34538      185.30012      151.30832    
     44800  -13281.09       79.89565      -13201.194      179.30371      185.25887      151.37015    
     44900  -13273.102      77.49142      -13195.611      179.26014      185.21456      151.43199    
     45000  -13265.178      77.916715     -13187.262      179.21974      185.17301      151.49382    
     45100  -13259.606      80.680332     -13178.925      179.17709      185.12846      151.55566    
     45200  -13253.507      79.892779     -13173.614      179.13661      185.08565      151.61749    
     45300  -13249.047      78.457044     -13170.59       179.09487      185.04159      151.67933    
     45400  -13245.232      80.229366     -13165.003      179.05296      184.99771      151.74116    
     45500  -13237.419      79.298693     -13158.12       179.01152      184.95502      151.80299    
     45600  -13229.511      78.516915     -13150.994      178.96886      184.91238      151.86483    
     45700  -13224.091      80.757666     -13143.333      178.92591      184.87082      151.92666    
     45800  -13215.618      79.292423     -13136.325      178.88087      184.82899      151.9885     
     45900  -13213.223      81.106807     -13132.117      178.83721      184.79054      152.05033    
     46000  -13206.512      77.533632     -13128.979      178.79094      184.75091      152.11217    
     46100  -13200.749      77.893808     -13122.855      178.74437      184.7129       152.174      
     46200  -13195.362      80.302685     -13115.06       178.69823      184.67716      152.23583    
     46300  -13186.759      81.005527     -13105.754      178.64767      184.63844      152.29767    
     46400  -13179.014      79.871105     -13099.143      178.60175      184.60604      152.3595     
     46500  -13176.116      78.077556     -13098.038      178.54908      184.56781      152.42134    
     46600  -13169.029      76.648897     -13092.38       178.50249      184.53602      152.48317    
     46700  -13165.146      79.921087     -13085.225      178.44985      184.499        152.545      
     46800  -13158.34       81.163537     -13077.177      178.40251      184.46676      152.60684    
     46900  -13147.817      77.777554     -13070.04       178.35155      184.43043      152.66867    
     47000  -13147.151      80.846701     -13066.305      178.30278      184.39619      152.73051    
     47100  -13140.609      77.672255     -13062.937      178.25539      184.36148      152.79234    
     47200  -13134.975      78.876114     -13056.099      178.2056       184.32289      152.85418    
     47300  -13126.043      78.22917      -13047.814      178.16142      184.28867      152.91601    
     47400  -13120.152      79.557641     -13040.595      178.11249      184.24681      152.97784    
     47500  -13113.01       77.760563     -13035.249      178.07037      184.21167      153.03968    
     47600  -13108.327      78.735445     -13029.591      178.02391      184.16981      153.10151    
     47700  -13102.152      78.17141      -13023.981      177.98205      184.13144      153.16335    
     47800  -13098.316      80.295737     -13018.02       177.93878      184.08992      153.22518    
     47900  -13091.887      79.945752     -13011.941      177.89726      184.04846      153.28702    
     48000  -13087.394      81.169958     -13006.224      177.8568       184.00712      153.34885    
     48100  -13078.62       78.814205     -12999.806      177.81467      183.96328      153.41068    
     48200  -13072.502      79.756094     -12992.746      177.77671      183.92333      153.47252    
     48300  -13064.093      78.861775     -12985.231      177.73246      183.87651      153.53435    
     48400  -13058.427      80.171568     -12978.256      177.69688      183.83836      153.59619    
     48500  -13053.329      78.604017     -12974.725      177.65244      183.79288      153.65802    
     48600  -13048.392      77.739566     -12970.652      177.61425      183.75415      153.71985    
     48700  -13042.263      78.542631     -12963.72       177.57165      183.71187      153.78169    
     48800  -13034.746      79.19828      -12955.547      177.52996      183.67242      153.84352    
     48900  -13025.128      78.68294      -12946.445      177.48746      183.63342      153.90536    
     49000  -13020.801      82.200893     -12938.6        177.44225      183.59285      153.96719    
     49100  -13018.476      82.861369     -12935.614      177.40143      183.55866      154.02903    
     49200  -13010.179      77.55515      -12932.624      177.35444      183.51922      154.09086    
     49300  -13004.815      77.764012     -12927.051      177.31148      183.48544      154.15269    
     49400  -12999.29       79.078772     -12920.211      177.2651       183.44891      154.21453    
     49500  -12992.145      79.933134     -12912.212      177.21975      183.41448      154.27636    
     49600  -12984.925      80.472422     -12904.453      177.17442      183.38103      154.3382     
     49700  -12980.124      80.423936     -12899.7        177.12656      183.34593      154.40003    
     49800  -12973.53       76.727656     -12896.802      177.08289      183.31487      154.46187    
     49900  -12969.606      79.031961     -12890.574      177.03323      183.27759      154.5237     
     50000  -12961.963      79.565138     -12882.398      176.99211      183.24809      154.58553    
     50100  -12955.011      80.864552     -12874.147      176.94299      183.2104       154.64737    
     50200  -12948.948      82.600129     -12866.348      176.90067      183.17867      154.7092     
     50300  -12942.576      81.473272     -12861.103      176.85648      183.14403      154.77104    
     50400  -12936.826      78.580783     -12858.245      176.81166      183.10736      154.83287    
     50500  -12932.432      78.924049     -12853.508      176.77191      183.07492      154.8947     
     50600  -12926.131      79.001414     -12847.129      176.72601      183.03438      154.95654    
     50700  -12920.19       81.760266     -12838.43       176.68963      183.00343      155.01837    
     50800  -12909.737      79.999947     -12829.737      176.64388      182.96057      155.08021    
     50900  -12904.342      80.027669     -12824.314      176.60898      182.9286       155.14204    
     51000  -12901.267      79.63654      -12821.631      176.56728      182.88712      155.20388    
     51100  -12895.742      80.386185     -12815.356      176.52995      182.8505       155.26571    
     51200  -12887.349      79.062657     -12808.287      176.49315      182.81302      155.32754    
     51300  -12881.78       80.197191     -12801.583      176.45273      182.77098      155.38938    
     51400  -12874.167      77.979096     -12796.188      176.4201       182.73684      155.45121    
     51500  -12870.336      78.202987     -12792.133      176.37827      182.69316      155.51305    
     51600  -12864.5        78.249571     -12786.251      176.3468       182.65977      155.57488    
     51700  -12855.805      79.058541     -12776.746      176.30597      182.61753      155.63672    
     51800  -12847.636      79.563956     -12768.072      176.27193      182.58255      155.69855    
     51900  -12842.907      79.861293     -12763.045      176.23348      182.54461      155.76038    
     52000  -12837.418      78.441565     -12758.977      176.19645      182.50832      155.82222    
     52100  -12832.728      79.321735     -12753.406      176.16059      182.47464      155.88405    
     52200  -12825.683      79.006719     -12746.676      176.1194       182.43717      155.94589    
     52300  -12819.195      79.586169     -12739.609      176.08447      182.40706      156.00772    
     52400  -12810.587      77.943585     -12732.644      176.04033      182.36951      156.06955    
     52500  -12804.73       81.363913     -12723.366      176.00474      182.34218      156.13139    
     52600  -12798.501      81.432554     -12717.069      175.96135      182.30771      156.19322    
     52700  -12794.82       80.716337     -12714.104      175.92244      182.27922      156.25506    
     52800  -12788.682      79.298388     -12709.384      175.88267      182.25038      156.31689    
     52900  -12780.902      77.244806     -12703.657      175.83922      182.21848      156.37873    
     53000  -12775.559      79.556224     -12696.003      175.80184      182.19281      156.44056    
     53100  -12767.235      80.533472     -12686.701      175.75711      182.15983      156.50239    
     53200  -12760.682      81.215535     -12679.466      175.72105      182.13494      156.56423    
     53300  -12755.194      78.376867     -12676.817      175.67808      182.1023       156.62606    
     53400  -12751.298      79.807629     -12671.491      175.6416       182.07547      156.6879     
     53500  -12743.894      78.742591     -12665.151      175.60228      182.04482      156.74973    
     53600  -12736.605      78.03253      -12658.572      175.56448      182.01451      156.81157    
     53700  -12731.371      79.738958     -12651.632      175.52909      181.98577      156.8734     
     53800  -12725.016      79.749701     -12645.266      175.48992      181.95153      156.93523    
     53900  -12719.468      79.505876     -12639.962      175.45891      181.92453      156.99707    
     54000  -12711.744      76.288216     -12635.456      175.42071      181.88803      157.0589     
     54100  -12708.434      79.538699     -12628.895      175.3913       181.86049      157.12074    
     54200  -12698.861      80.069933     -12618.791      175.3553       181.8235       157.18257    
     54300  -12690.737      80.178056     -12610.559      175.32592      181.79291      157.2444     
     54400  -12687.807      81.751803     -12606.055      175.29382      181.75824      157.30624    
     54500  -12681.508      80.137463     -12601.37       175.26333      181.7248       157.36807    
     54600  -12673.458      77.76087      -12595.697      175.23441      181.69276      157.42991    
     54700  -12669.585      79.542561     -12590.042      175.20269      181.65765      157.49174    
     54800  -12661.593      76.965054     -12584.628      175.17533      181.62659      157.55358    
     54900  -12659.146      78.628711     -12580.517      175.1434       181.59182      157.61541    
     55000  -12650.072      76.729052     -12573.343      175.11517      181.56168      157.67724    
     55100  -12643.757      80.593187     -12563.164      175.08466      181.52949      157.73908    
     55200  -12635.811      80.138409     -12555.673      175.05305      181.4974       157.80091    
     55300  -12630.002      79.879304     -12550.123      175.0259       181.47036      157.86275    
     55400  -12624.472      78.318408     -12546.154      174.99092      181.43682      157.92458    
     55500  -12618.911      78.93912      -12539.971      174.96365      181.41244      157.98642    
     55600  -12612.322      79.497228     -12532.825      174.92848      181.38084      158.04825    
     55700  -12606.239      81.035899     -12525.204      174.8998       181.35662      158.11008    
     55800  -12598.543      80.30716      -12518.236      174.8649       181.32719      158.17192    
     55900  -12594.242      79.585374     -12514.657      174.83381      181.30286      158.23375    
     56000  -12589.09       79.36772      -12509.722      174.80247      181.27881      158.29559    
     56100  -12578.718      77.04214      -12501.676      174.76727      181.25187      158.35742    
     56200  -12572.064      79.832954     -12492.231      174.73853      181.23171      158.41925    
     56300  -12564.528      78.913913     -12485.614      174.70124      181.20348      158.48109    
     56400  -12560.456      80.696973     -12479.759      174.67289      181.18453      158.54292    
     56500  -12553.435      79.278455     -12474.156      174.63736      181.15776      158.60476    
     56600  -12547.9        79.894279     -12468.006      174.60771      181.13698      158.66659    
     56700  -12542.179      79.947053     -12462.232      174.57553      181.11276      158.72843    
     56800  -12534.879      76.768639     -12458.11       174.54353      181.08793      158.79026    
     56900  -12529.872      75.920608     -12453.952      174.51655      181.06692      158.85209    
     57000  -12521.926      76.73863      -12445.188      174.48393      181.03853      158.91393    
     57100  -12516.515      80.514895     -12436.001      174.45997      181.01884      158.97576    
     57200  -12508.83       79.904746     -12428.926      174.42784      180.98809      159.0376     
     57300  -12504.145      80.912294     -12423.233      174.40429      180.966        159.09943    
     57400  -12496.926      77.702486     -12419.224      174.37654      180.93817      159.16127    
     57500  -12492.272      78.687411     -12413.584      174.35143      180.91146      159.2231     
     57600  -12484.74       81.419891     -12403.32       174.32826      180.88636      159.28493    
     57700  -12475.412      81.550739     -12393.861      174.30172      180.85638      159.34677    
     57800  -12470.636      81.652047     -12388.984      174.28214      180.83302      159.4086     
     57900  -12464.717      80.095982     -12384.621      174.25472      180.8011       159.47044    
     58000  -12458.288      79.282638     -12379.006      174.23684      180.77934      159.53227    
     58100  -12453.562      80.825373     -12372.737      174.20923      180.74805      159.59411    
     58200  -12444.87       79.837631     -12365.033      174.19062      180.72557      159.65594    
     58300  -12434.376      78.837948     -12355.539      174.16407      180.69577      159.71777    
     58400  -12430.374      82.303172     -12348.071      174.14305      180.67222      159.77961    
     58500  -12424.42       79.643725     -12344.776      174.11926      180.64722      159.84144    
     58600  -12420.092      80.938065     -12339.154      174.09536      180.62294      159.90328    
     58700  -12412.025      79.225692     -12332.799      174.0724       180.60111      159.96511    
     58800  -12405.464      78.520093     -12326.944      174.04618      180.57681      160.02694    
     58900  -12400.095      77.913488     -12322.181      174.0226       180.55681      160.08878    
     59000  -12394.184      77.591063     -12316.593      173.99628      180.53526      160.15061    
     59100  -12386.303      78.746448     -12307.556      173.97069      180.51534      160.21245    
     59200  -12375.473      78.303278     -12297.17       173.94381      180.49469      160.27428    
     59300  -12370.746      80.086193     -12290.659      173.91804      180.476        160.33612    
     59400  -12366.52       80.147471     -12286.372      173.89145      180.45775      160.39795    
     59500  -12359.41       78.97112      -12280.439      173.86468      180.43885      160.45978    
     59600  -12353.303      79.729144     -12273.574      173.83959      180.42136      160.52162    
     59700  -12346.077      79.538362     -12266.538      173.8119       180.40133      160.58345    
     59800  -12340.314      79.060733     -12261.253      173.78831      180.38535      160.64529    
     59900  -12335.043      77.955576     -12257.087      173.76067      180.36435      160.70712    
     60000  -12325.579      76.666369     -12248.913      173.73804      180.34776      160.76896    
     60100  -12316.637      77.571248     -12239.066      173.71192      180.32681      160.83079    
     60200  -12311.992      80.488916     -12231.503      173.68877      180.30866      160.89262    
     60300  -12304.955      79.713963     -12225.241      173.66497      180.28835      160.95446    
     60400  -12297.888      78.419544     -12219.469      173.64242      180.26878      161.01629    
     60500  -12292.902      79.725123     -12213.176      173.62047      180.24883      161.07813    
     60600  -12286.843      80.469646     -12206.373      173.59901      180.2277       161.13996    
     60700  -12279.951      80.827305     -12199.124      173.57793      180.207        161.20179    
     60800  -12274.064      81.831502     -12192.233      173.55776      180.18596      161.26363    
     60900  -12265.979      80.346376     -12185.632      173.53692      180.16359      161.32546    
     61000  -12258.592      78.801223     -12179.791      173.51781      180.14192      161.3873     
     61100  -12255.239      80.317142     -12174.922      173.49841      180.12002      161.44913    
     61200  -12246.321      75.035345     -12171.286      173.48051      180.09872      161.51097    
     61300  -12240.016      77.400436     -12162.615      173.46098      180.07547      161.5728     
     61400  -12232.841      80.080959     -12152.76       173.44309      180.05354      161.63463    
     61500  -12224.944      80.95493      -12143.989      173.42374      180.02997      161.69647    
     61600  -12215.645      78.845241     -12136.8        173.40591      180.00884      161.7583     
     61700  -12213.261      80.234645     -12133.026      173.38799      179.98755      161.82014    
     61800  -12205.829      78.969638     -12126.859      173.36939      179.96615      161.88197    
     61900  -12198.33       79.990251     -12118.34       173.35074      179.9449       161.94381    
     62000  -12190.221      80.999062     -12109.221      173.33147      179.9241       162.00564    
     62100  -12182.291      81.422637     -12100.869      173.31133      179.90355      162.06747    
     62200  -12175.071      79.392498     -12095.679      173.29227      179.88459      162.12931    
     62300  -12171.261      80.533877     -12090.727      173.272        179.86536      162.19114    
     62400  -12162.444      78.293982     -12084.15       173.25154      179.84696      162.25298    
     62500  -12154.249      78.001008     -12076.248      173.23082      179.829        162.31481    
     62600  -12148.208      79.63576      -12068.572      173.20879      179.81111      162.37664    
     62700  -12139.528      78.185238     -12061.343      173.18855      179.79517      162.43848    
     62800  -12136.14       80.531965     -12055.608      173.16556      179.77714      162.50031    
     62900  -12126.774      77.187951     -12049.586      173.14541      179.76263      162.56215    
     63000  -12121.554      79.465469     -12042.089      173.12145      179.74433      162.62398    
     63100  -12110.282      78.140376     -12032.142      173.10077      179.72988      162.68582    
     63200  -12104.313      82.739883     -12021.573      173.0768       179.7118       162.74765    
     63300  -12096.45       80.790065     -12015.66       173.05681      179.69828      162.80948    
     63400  -12090.231      79.530477     -12010.701      173.03325      179.68045      162.87132    
     63500  -12084.379      80.297045     -12004.082      173.01341      179.66573      162.93315    
     63600  -12075.754      77.907806     -11997.846      172.99071      179.64732      162.99499    
     63700  -12070.879      79.931381     -11990.947      172.9713       179.63196      163.05682    
     63800  -12063.037      78.672461     -11984.364      172.95002      179.6135       163.11866    
     63900  -12056.528      77.099667     -11979.428      172.93022      179.59617      163.18049    
     64000  -12047.806      76.486812     -11971.319      172.91037      179.57807      163.24232    
     64100  -12038.942      78.94437      -11959.998      172.89069      179.55921      163.30416    
     64200  -12030.042      79.014599     -11951.027      172.87221      179.54045      163.36599    
     64300  -12024.795      80.722404     -11944.073      172.8533       179.52066      163.42783    
     64400  -12016.415      77.836778     -11938.578      172.83688      179.50314      163.48966    
     64500  -12011.122      79.447893     -11931.674      172.81725      179.48118      163.55149    
     64600  -12003.634      80.3125       -11923.322      172.80164      179.46297      163.61333    
     64700  -11993.061      77.827206     -11915.234      172.78234      179.44031      163.67516    
     64800  -11988.773      78.651782     -11910.121      172.76749      179.42209      163.737      
     64900  -11981.012      77.312701     -11903.7        172.74902      179.39954      163.79883    
     65000  -11973.604      79.694051     -11893.91       172.73308      179.38003      163.86067    
     65100  -11962.411      79.385383     -11883.025      172.71586      179.35895      163.9225     
     65200  -11954.759      80.273751     -11874.485      172.69857      179.33813      163.98433    
     65300  -11950.262      79.966781     -11870.296      172.68197      179.31866      164.04617    
     65400  -11941.614      78.700827     -11862.913      172.66394      179.29832      164.108      
     65500  -11932.692      78.216254     -11854.476      172.64642      179.27931      164.16984    
     65600  -11927.802      81.085769     -11846.716      172.62671      179.25901      164.23167    
     65700  -11918.46       79.414582     -11839.045      172.60926      179.24191      164.29351    
     65800  -11911.337      78.480354     -11832.857      172.5896       179.22296      164.35534    
     65900  -11903.482      78.217946     -11825.264      172.57048      179.20534      164.41717    
     66000  -11893.356      78.061787     -11815.295      172.55011      179.18687      164.47901    
     66100  -11883.656      81.380512     -11802.275      172.53003      179.16979      164.54084    
     66200  -11875.969      82.346769     -11793.623      172.50869      179.1523       164.60268    
     66300  -11869.091      80.975795     -11788.115      172.4879       179.13621      164.66451    
     66400  -11862.271      81.212396     -11781.058      172.46695      179.1199       164.72634    
     66500  -11853.437      79.203907     -11774.233      172.44496      179.10265      164.78818    
     66600  -11845.592      78.680033     -11766.912      172.42416      179.08698      164.85001    
     66700  -11836.275      77.526846     -11758.748      172.40182      179.07014      164.91185    
     66800  -11830.039      78.92632      -11751.113      172.38087      179.0547       164.97368    
     66900  -11823.753      77.673945     -11746.079      172.35838      179.0374       165.03552    
     67000  -11814.113      77.532896     -11736.58       172.3375       179.02142      165.09735    
     67100  -11805.817      80.481873     -11725.335      172.31551      179.00375      165.15918    
     67200  -11795.104      80.154837     -11714.949      172.29451      178.98644      165.22102    
     67300  -11787.152      79.560667     -11707.591      172.27353      178.96857      165.28285    
     67400  -11782.126      80.48276      -11701.643      172.25377      178.95111      165.34469    
     67500  -11770.534      77.594031     -11692.94       172.23322      178.93219      165.40652    
     67600  -11763.95       80.211801     -11683.738      172.2135       178.91301      165.46836    
     67700  -11753.197      78.136339     -11675.06       172.19377      178.89302      165.53019    
     67800  -11746.933      78.765795     -11668.167      172.17511      178.87382      165.59202    
     67900  -11736.799      77.284846     -11659.514      172.15586      178.853        165.65386    
     68000  -11729.578      80.419646     -11649.158      172.13756      178.83253      165.71569    
     68100  -11718.059      78.80116      -11639.258      172.11922      178.81142      165.77753    
     68200  -11714.479      80.994761     -11633.484      172.10037      178.78933      165.83936    
     68300  -11703.059      78.257371     -11624.802      172.08359      178.76863      165.90119    
     68400  -11692.455      77.298922     -11615.156      172.06376      178.74488      165.96303    
[...]
     81600  -14718.37       80.498692     -14637.872      168.93617      176.25071      174.12515    
     81700  -14721.943      76.108426     -14645.835      168.91853      176.26635      174.18698    
     81800  -14720.339      74.815592     -14645.523      168.8998       176.28266      174.24881    
     81900  -14714.381      77.529441     -14636.852      168.8824       176.29616      174.31065    
     82000  -14711.451      84.342692     -14627.108      168.86599      176.30319      174.37248    
     82100  -14710.71       84.965419     -14625.744      168.85573      176.3183       174.43432    
     82200  -14713.375      79.259541     -14634.115      168.83093      176.32276      174.49615    
     82300  -14718.589      75.472341     -14643.117      168.81445      176.34133      174.55798    
     82400  -14719.999      74.442867     -14645.556      168.78821      176.35009      174.61982    
     82500  -14713.829      75.058088     -14638.771      168.77011      176.37129      174.68165    
     82600  -14707.086      81.308731     -14625.777      168.7428       176.3872       174.74349    
     82700  -14707.209      87.278965     -14619.93       168.72008      176.41046      174.80532    
     82800  -14714.724      83.55083      -14631.173      168.68841      176.42669      174.86716    
     82900  -14723.587      76.655864     -14646.931      168.66297      176.44857      174.92899    
     83000  -14729.776      74.489582     -14655.286      168.6361       176.47082      174.99082    
     83100  -14723.093      71.878297     -14651.215      168.60849      176.49254      175.05266    
     83200  -14717.287      79.898496     -14637.389      168.5816       176.51336      175.11449    
     83300  -14712.196      84.012555     -14628.183      168.55468      176.53074      175.17633    
     83400  -14715.305      82.559586     -14632.745      168.52712      176.54756      175.23816    
     83500  -14722.386      77.24912      -14645.137      168.49896      176.56919      175.3        
     83600  -14724.961      71.683435     -14653.278      168.46985      176.59509      175.36183    
     83700  -14724.381      73.485214     -14650.896      168.43904      176.6243       175.42366    
     83800  -14719.096      79.198654     -14639.897      168.40586      176.65458      175.4855     
     83900  -14712.791      82.448745     -14630.342      168.37426      176.68373      175.54733    
     84000  -14713.63       82.872225     -14630.757      168.34146      176.71497      175.60917    
     84100  -14721.591      80.391967     -14641.199      168.31081      176.75069      175.671      
     84200  -14725.01       74.413357     -14650.597      168.27868      176.78167      175.73283    
     84300  -14723.375      73.458405     -14649.917      168.24512      176.8133       175.79467    
     84400  -14719.676      79.14852      -14640.527      168.21073      176.84522      175.8565     
     84500  -14715.148      82.727995     -14632.42       168.17187      176.87454      175.91834    
     84600  -14717.724      83.09163      -14634.632      168.13446      176.90785      175.98017    
     84700  -14719.46       75.071462     -14644.389      168.09465      176.93934      176.04201    
     84800  -14722.802      73.743839     -14649.058      168.05475      176.97461      176.10384    
     84900  -14722.264      77.915157     -14644.349      168.01144      177.01415      176.16567    
     85000  -14717.167      81.50374      -14635.663      167.96933      177.06141      176.22751    
     85100  -14715.528      83.730552     -14631.798      167.92063      177.09895      176.28934    
     85200  -14716.337      80.557392     -14635.78       167.87804      177.14792      176.35118    
     85300  -14720.958      77.898389     -14643.06       167.82664      177.18652      176.41301    
     85400  -14720.767      73.880264     -14646.887      167.78308      177.23058      176.47485    
     85500  -14721.314      76.678226     -14644.636      167.73309      177.26667      176.53668    
     85600  -14719.001      79.696347     -14639.304      167.69088      177.31354      176.59851    
     85700  -14720.354      83.291971     -14637.062      167.63946      177.34698      176.66035    
     85800  -14719.936      79.837503     -14640.098      167.59656      177.39271      176.72218    
     85900  -14721.559      76.249955     -14645.309      167.54296      177.43604      176.78402    
     86000  -14721.56       75.453004     -14646.107      167.49277      177.48779      176.84585    
     86100  -14719.904      78.946775     -14640.957      167.43499      177.5387       176.90768    
     86200  -14718.078      82.673976     -14635.404      167.38071      177.60383      176.96952    
     86300  -14716.22       80.701871     -14635.518      167.31935      177.66454      177.03135    
     86400  -14720.057      79.133804     -14640.923      167.26045      177.73182      177.09319    
     86500  -14723.238      76.790174     -14646.448      167.19589      177.79105      177.15502    
     86600  -14726.192      78.309935     -14647.882      167.13686      177.85407      177.21686    
     86700  -14721.923      77.157826     -14644.766      167.07224      177.91082      177.27869    
     86800  -14716.724      77.400663     -14639.323      167.01317      177.97611      177.34052    
     86900  -14717.153      81.193674     -14635.959      166.94712      178.0344       177.40236    
     87000  -14717.497      80.32347      -14637.174      166.88707      178.10289      177.46419    
     87100  -14718.73       77.243693     -14641.486      166.82322      178.16693      177.52603    
     87200  -14721.449      77.023647     -14644.426      166.76039      178.23351      177.58786    
     87300  -14720.253      76.975652     -14643.278      166.69533      178.30257      177.6497     
     87400  -14718.222      78.74266      -14639.479      166.63146      178.37838      177.71153    
     87500  -14718.977      82.360653     -14636.616      166.56509      178.45433      177.77336    
     87600  -14719.332      81.302714     -14638.03       166.49843      178.53079      177.8352     
     87700  -14721.668      79.567675     -14642.101      166.43116      178.60208      177.89703    
     87800  -14722.097      77.068205     -14645.028      166.36198      178.66846      177.95887    
     87900  -14723.071      77.890209     -14645.181      166.29218      178.73478      178.0207     
     88000  -14722.341      79.038461     -14643.302      166.22006      178.80385      178.08253    
     88100  -14721.225      80.328429     -14640.896      166.14714      178.87513      178.14437    
     88200  -14718.96       79.782197     -14639.177      166.07352      178.95012      178.2062     
     88300  -14719.579      80.077683     -14639.501      165.99905      179.02817      178.26804    
     88400  -14719.084      78.089776     -14640.994      165.92536      179.11121      178.32987    
     88500  -14722.185      79.465273     -14642.72       165.84961      179.19754      178.39171    
     88600  -14721.052      77.603977     -14643.448      165.77136      179.28461      178.45354    
     88700  -14719.969      78.299797     -14641.669      165.69252      179.36806      178.51537    
     88800  -14719.841      81.51239      -14638.329      165.61346      179.45249      178.57721    
     88900  -14715.708      79.547932     -14636.16       165.53368      179.52937      178.63904    
     89000  -14720.395      81.349908     -14639.045      165.45523      179.6027       178.70088    
     89100  -14722.264      78.213191     -14644.051      165.37669      179.67258      178.76271    
     89200  -14724.5        78.043679     -14646.456      165.30156      179.74489      178.82455    
     89300  -14720.513      75.796249     -14644.717      165.2285       179.81832      178.88638    
     89400  -14717.973      78.434564     -14639.538      165.15225      179.89208      178.94821    
     89500  -14717.011      82.966396     -14634.044      165.07844      179.97924      179.01005    
     89600  -14714.882      81.146672     -14633.735      165.00132      180.06518      179.07188    
     89700  -14718.101      79.126989     -14638.974      164.92439      180.15182      179.13372    
     89800  -14721.351      75.733129     -14645.618      164.85002      180.24291      179.19555    
     89900  -14723.229      75.149132     -14648.08       164.77283      180.33008      179.25738    
     90000  -14721.367      77.103097     -14644.264      164.69509      180.4137       179.31922    
     90100  -14717.478      80.06041      -14637.418      164.61691      180.49382      179.38105    
     90200  -14718.364      83.325885     -14635.039      164.53648      180.57117      179.44289    
     90300  -14718.459      78.43418      -14640.025      164.45684      180.65005      179.50472    
     90400  -14723.869      77.424934     -14646.444      164.37513      180.73003      179.56656    
     90500  -14723.2        75.373455     -14647.826      164.29592      180.81348      179.62839    
     90600  -14719.769      77.416334     -14642.353      164.21495      180.89958      179.69022    
     90700  -14716.946      81.635052     -14635.311      164.13915      180.99083      179.75206    
     90800  -14718.292      83.939217     -14634.353      164.06116      181.08064      179.81389    
     90900  -14720.572      79.422253     -14641.15       163.99054      181.1742       179.87573    
     91000  -14724.836      76.192418     -14648.644      163.91524      181.26267      179.93756    
     91100  -14724.781      75.011199     -14649.77       163.84508      181.3519       179.9994     
     91200  -14721.418      78.27355      -14643.145      163.77231      181.42796      180.06123    
     91300  -14714.785      80.142848     -14634.643      163.70637      181.50076      180.12306    
     91400  -14716.071      83.662734     -14632.409      163.63766      181.56492      180.1849     
     91500  -14721.572      82.098541     -14639.473      163.57311      181.62924      180.24673    
     91600  -14722.354      74.44885      -14647.905      163.50777      181.68674      180.30857    
     91700  -14723.321      72.700214     -14650.621      163.44625      181.75103      180.3704     
     91800  -14722.795      77.540919     -14645.254      163.38076      181.81695      180.43223    
     91900  -14719.588      82.231493     -14637.357      163.31843      181.88926      180.49407    
     92000  -14717.835      83.919108     -14633.916      163.25663      181.96265      180.5559     
     92100  -14720.2        82.411951     -14637.788      163.19603      182.03824      180.61774    
     92200  -14723.761      79.336595     -14644.424      163.13334      182.10853      180.67957    
     92300  -14723.482      75.799765     -14647.683      163.07304      182.17853      180.74141    
     92400  -14723.108      77.986459     -14645.122      163.01062      182.24054      180.80324    
     92500  -14721.577      82.153927     -14639.423      162.95303      182.30346      180.86507    
     92600  -14718.943      81.816927     -14637.126      162.88845      182.36211      180.92691    
     92700  -14718.886      79.083185     -14639.802      162.82756      182.42257      180.98874    
     92800  -14722.33       78.215019     -14644.115      162.76683      182.4848       181.05058    
     92900  -14722.041      76.255278     -14645.786      162.7074       182.55509      181.11241    
     93000  -14720.767      77.717382     -14643.05       162.64743      182.62633      181.17425    
     93100  -14720.705      82.249131     -14638.455      162.58984      182.70037      181.23608    
     93200  -14717.566      81.378783     -14636.187      162.53435      182.77474      181.29791    
     93300  -14716.93       78.141797     -14638.788      162.48201      182.84637      181.35975    
     93400  -14719.456      75.824926     -14643.631      162.42839      182.91028      181.42158    
     93500  -14722.111      76.17751      -14645.933      162.37783      182.96886      181.48342    
     93600  -14720.869      77.098058     -14643.771      162.32713      183.01769      181.54525    
     93700  -14718.558      79.176906     -14639.381      162.27817      183.06345      181.60709    
     93800  -14717.24       80.713739     -14636.526      162.22948      183.10677      181.66892    
     93900  -14717.579      79.560865     -14638.018      162.18334      183.1519       181.73075    
     94000  -14720.932      78.852469     -14642.079      162.13655      183.20035      181.79259    
     94100  -14720.924      75.808221     -14645.115      162.09056      183.25288      181.85442    
     94200  -14723.234      78.581204     -14644.653      162.04488      183.3082       181.91626    
     94300  -14720.992      79.852066     -14641.14       162.00112      183.3645       181.97809    
     94400  -14718.224      80.013208     -14638.21       161.95706      183.42304      182.03992    
     94500  -14718.397      79.871975     -14638.525      161.91658      183.47979      182.10176    
     94600  -14720.732      79.254479     -14641.478      161.87122      183.52128      182.16359    
     94700  -14722.73       78.618203     -14644.112      161.83014      183.57019      182.22543    
     94800  -14721.343      76.816852     -14644.526      161.78484      183.61021      182.28726    
     94900  -14721.702      78.670149     -14643.032      161.73972      183.64811      182.3491     
     95000  -14721.161      80.152282     -14641.009      161.69177      183.6903       182.41093    
     95100  -14718.487      77.876383     -14640.611      161.64879      183.74718      182.47276    
     95200  -14720.86       79.254692     -14641.605      161.60182      183.7991       182.5346     
     95300  -14721.626      78.561287     -14643.064      161.55968      183.86645      182.59643    
     95400  -14721.238      77.963307     -14643.275      161.51566      183.93754      182.65827    
     95500  -14720.435      78.598182     -14641.837      161.47584      184.00637      182.7201     
     95600  -14719.744      79.850696     -14639.893      161.43601      184.06795      182.78194    
     95700  -14719.458      80.597302     -14638.86       161.40035      184.12513      182.84377    
     95800  -14720.428      80.59992      -14639.828      161.36301      184.16168      182.9056     
     95900  -14719.607      77.629482     -14641.977      161.33069      184.19154      182.96744    
     96000  -14722.991      79.53824      -14643.453      161.2909       184.21047      183.02927    
     96100  -14720.452      76.961259     -14643.491      161.26041      184.23393      183.09111    
     96200  -14720.78       78.921392     -14641.859      161.22234      184.24586      183.15294    
     96300  -14719.712      80.264975     -14639.447      161.19351      184.27613      183.21477    
     96400  -14719.524      80.837491     -14638.687      161.1559       184.3072       183.27661    
     96500  -14719.225      79.226084     -14639.999      161.125        184.35549      183.33844    
     96600  -14720.843      79.104889     -14641.738      161.088        184.39965      183.40028    
     96700  -14721.382      78.574586     -14642.807      161.05753      184.45184      183.46211    
     96800  -14722.97       80.818761     -14642.151      161.0248       184.50325      183.52395    
     96900  -14719.168      78.347751     -14640.82       160.99348      184.54658      183.58578    
     97000  -14719.948      79.949145     -14639.998      160.95979      184.57829      183.64761    
     97100  -14721.669      80.904062     -14640.765      160.92794      184.61081      183.70945    
     97200  -14720.815      78.063342     -14642.752      160.89311      184.63351      183.77128    
     97300  -14723.187      78.972219     -14644.215      160.86021      184.6527       183.83312    
     97400  -14722.519      79.079366     -14643.44       160.82487      184.68022      183.89495    
     97500  -14720.778      79.890377     -14640.888      160.78819      184.717        183.95679    
     97600  -14719.055      80.162323     -14638.893      160.75042      184.75299      184.01862    
     97700  -14718.283      78.919674     -14639.363      160.71285      184.79779      184.08045    
     97800  -14720.525      78.944295     -14641.58       160.67909      184.85308      184.14229    
     97900  -14720.511      77.031247     -14643.48       160.64418      184.89926      184.20412    
     98000  -14722.011      78.936333     -14643.075      160.61177      184.9419       184.26596    
     98100  -14720.03       79.329248     -14640.701      160.57655      184.98353      184.32779    
     98200  -14718.763      80.451285     -14638.311      160.54751      185.01644      184.38962    
     98300  -14718.757      80.341966     -14638.415      160.51658      185.03646      184.45146    
     98400  -14722.45       81.43135      -14641.019      160.48833      185.06379      184.51329    
     98500  -14721.855      77.936774     -14643.919      160.46032      185.0873       184.57513    
     98600  -14720.383      75.871603     -14644.512      160.4332       185.11192      184.63696    
     98700  -14720.804      78.725303     -14642.079      160.40626      185.15273      184.6988     
     98800  -14718.852      79.505791     -14639.346      160.38002      185.20494      184.76063    
     98900  -14717.83       78.649965     -14639.18       160.35125      185.25146      184.82246    
     99000  -14719.996      78.409702     -14641.586      160.32386      185.30285      184.8843     
     99100  -14721.785      78.027847     -14643.757      160.29506      185.35153      184.94613    
     99200  -14720.667      77.573559     -14643.093      160.27105      185.3899       185.00797    
     99300  -14721.108      80.400995     -14640.707      160.24025      185.41551      185.0698     
     99400  -14719.321      79.731207     -14639.589      160.21225      185.44239      185.13164    
     99500  -14720.951      80.237289     -14640.714      160.18166      185.45731      185.19347    
     99600  -14722.61       79.464032     -14643.146      160.15237      185.47688      185.2553     
     99700  -14721.325      77.230488     -14644.094      160.11963      185.49658      185.31714    
     99800  -14720.629      77.817403     -14642.811      160.08657      185.52793      185.37897    
     99900  -14717.233      77.360667     -14639.873      160.05301      185.5628       185.44081    
    100000  -14719.466      81.95374      -14637.512      160.0192       185.60291      185.50264    
Loop time of 3046.24 on 12 procs for 100000 steps with 2040 atoms

Performance: 2.836 ns/day, 8.462 hours/ns, 32.827 timesteps/s, 66.968 katom-step/s
81.2% CPU use with 12 MPI tasks x 1 OpenMP threads

MPI task timing breakdown:
Section |  min time  |  avg time  |  max time  |%varavg| %total
---------------------------------------------------------------
Pair    | 0.074902   | 283.86     | 915.3      |2401.4 |  9.32
Neigh   | 0.0032652  | 0.43883    | 1.7573     |  99.7 |  0.01
Comm    | 0.51264    | 124.67     | 538.64     |1648.0 |  4.09
Output  | 6.1072     | 6.3322     | 6.4934     |   4.5 |  0.21
Modify  | 1613.1     | 2443.7     | 2853.5     |1166.3 | 80.22
Other   |            | 187.2      |            |       |  6.15

Nlocal:            170 ave         935 max           0 min
Histogram: 9 0 0 1 0 0 0 1 0 1
Nghost:        164.333 ave         775 max           0 min
Histogram: 8 0 0 1 1 0 0 1 0 1
Neighs:              0 ave           0 max           0 min
Histogram: 12 0 0 0 0 0 0 0 0 0

Total # of neighbors = 0
Ave neighs/atom = 0
Neighbor list builds = 320
Dangerous builds = 0
Total wall time: 0:50:47
