LAMMPS (2 Aug 2023 - Update 3)
OMP_NUM_THREADS environment is not set. Defaulting to 1 thread. (src/comm.cpp:98)
  using 1 OpenMP thread(s) per MPI task
Reading data file ...
  orthogonal box = (-100 -100 -2.3312515) to (100 100 46.166171)
  3 by 4 by 1 MPI processor grid
  reading atoms ...
  1480 atoms
  read_data CPU = 0.006 seconds
Replication is creating a 1x1x3 = 3 times larger system...
  orthogonal box = (-100 -100 -2.3312515) to (100 100 143.16102)
  2 by 3 by 2 MPI processor grid
  4440 atoms
  replicate CPU = 0.001 seconds
1080 atoms in group SR
Deleted 1080 atoms, new total = 3360
System init for write_data ...
WARNING: Communication cutoff is 0.0. No ghost atoms will be generated. Atoms may get lost. (src/comm_brick.cpp:210)
Reading airebo potential file CH.airebo with DATE: 2011-10-25
Reading airebo potential file CH.airebo with DATE: 2011-10-25
Reading airebo potential file CH.airebo with DATE: 2011-10-25
Neighbor list info ...
  update: every = 1 steps, delay = 0 steps, check = yes
  max neighbors/atom: 2000, page size: 100000
  master list distance cutoff = 13.2
  ghost atom cutoff = 13.2
  binsize = 6.6, bins = 31 31 23
  6 neighbor lists, perpetual/occasional/extra = 6 0 0
  (1) pair airebo, perpetual, skip from (5)
      attributes: full, newton on, ghost
      pair build: skip/ghost
      stencil: none
      bin: none
  (2) pair airebo, perpetual, skip from (5)
      attributes: full, newton on, ghost
      pair build: skip/ghost
      stencil: none
      bin: none
  (3) pair airebo, perpetual, skip from (5)
      attributes: full, newton on, ghost
      pair build: skip/ghost
      stencil: none
      bin: none
  (4) pair lj/cut, perpetual, skip from (6)
      attributes: half, newton on, cut 13
      pair build: skip
      stencil: none
      bin: none
  (5) neighbor class addition, perpetual
      attributes: full, newton on, ghost
      pair build: full/bin/ghost
      stencil: full/ghost/bin/3d
      bin: standard
  (6) neighbor class addition, perpetual
      attributes: half, newton on, cut 13
      pair build: half/bin/atomonly/newton
      stencil: half/bin/3d
      bin: standard
Setting up sd style minimization ...
  Unit style    : metal
  Current step  : 0
Per MPI rank memory allocation (min/avg/max) = 9.734 | 10.33 | 11.53 Mbytes
   Step          Temp          E_pair         E_mol          TotEng         Press     
         0   0             -24906.286      0             -24906.286     -48.029154    
         1   0             -24906.321      0             -24906.321     -47.94229     
Loop time of 0.0400233 on 12 procs for 1 steps with 3360 atoms

98.3% CPU use with 12 MPI tasks x 1 OpenMP threads

Minimization stats:
  Stopping criterion = energy tolerance
  Energy initial, next-to-last, final = 
     -24906.2856378735  -24906.2856378735  -24906.3213399453
  Force two-norm initial, final = 3.0426088 0.49500941
  Force max component initial, final = 0.052442243 0.0085447709
  Final line search alpha, max atom move = 1 0.0085447709
  Iterations, force evaluations = 1 2

MPI task timing breakdown:
Section |  min time  |  avg time  |  max time  |%varavg| %total
---------------------------------------------------------------
Pair    | 1.4662e-05 | 0.012729   | 0.03943    |  15.9 | 31.80
Neigh   | 0          | 0          | 0          |   0.0 |  0.00
Comm    | 4.424e-06  | 0.00052124 | 0.0028634  |   0.0 |  1.30
Output  | 0          | 0          | 0          |   0.0 |  0.00
Modify  | 0          | 0          | 0          |   0.0 |  0.00
Other   |            | 0.02677    |            |       | 66.89

Nlocal:            280 ave         870 max           0 min
Histogram: 8 0 0 0 0 0 0 0 0 4
Nghost:            476 ave        1458 max           0 min
Histogram: 8 0 0 0 0 0 0 0 0 4
Neighs:              0 ave           0 max           0 min
Histogram: 12 0 0 0 0 0 0 0 0 0

Total # of neighbors = 0
Ave neighs/atom = 0
Neighbor list builds = 0
Dangerous builds = 0
Setting up Verlet run ...
  Unit style    : metal
  Current step  : 1
  Time step     : 0.001
Per MPI rank memory allocation (min/avg/max) = 10.36 | 10.96 | 12.16 Mbytes
   Step          Temp          E_pair         E_mol          TotEng         Press          Volume    
         1   300           -24906.321      0             -24776.066     -24.03584       5819690.8    
Loop time of 7.62022e-05 on 12 procs for 0 steps with 3360 atoms

58.2% CPU use with 12 MPI tasks x 1 OpenMP threads

MPI task timing breakdown:
Section |  min time  |  avg time  |  max time  |%varavg| %total
---------------------------------------------------------------
Pair    | 0          | 0          | 0          |   0.0 |  0.00
Neigh   | 0          | 0          | 0          |   0.0 |  0.00
Comm    | 0          | 0          | 0          |   0.0 |  0.00
Output  | 0          | 0          | 0          |   0.0 |  0.00
Modify  | 0          | 0          | 0          |   0.0 |  0.00
Other   |            | 7.62e-05   |            |       |100.00

Nlocal:            280 ave         840 max           0 min
Histogram: 8 0 0 0 0 0 0 0 0 4
Nghost:            476 ave        1428 max           0 min
Histogram: 8 0 0 0 0 0 0 0 0 4
Neighs:              0 ave           0 max           0 min
Histogram: 12 0 0 0 0 0 0 0 0 0

Total # of neighbors = 0
Ave neighs/atom = 0
Neighbor list builds = 0
Dangerous builds = 0
WARNING: Dump 2 includes no atom IDs and is not sorted by ID. This may complicate post-processing tasks or visualization (src/dump.cpp:221)
Setting up Verlet run ...
  Unit style    : metal
  Current step  : 0
  Time step     : 0.001
Per MPI rank memory allocation (min/avg/max) = 11.86 | 12.46 | 13.66 Mbytes
   Step         PotEng         KinEng         TotEng           Lx             Ly             Lz      
         0  -24906.321      130.25545     -24776.066      200            200            145.49227    
       100  -24830.395      65.689065     -24764.706      199.99546      199.99216      145.56502    
       200  -24831.725      83.40024      -24748.325      199.99433      199.98854      145.63776    
       300  -24816.342      87.670666     -24728.671      200.00076      199.99176      145.71051    
       400  -24808.859      101.54003     -24707.319      199.99364      199.98117      145.78325    
       500  -24797.635      112.24981     -24685.385      199.99837      199.98134      145.856      
       600  -24784.158      119.64534     -24664.513      200.00334      199.98067      145.92875    
       700  -24775.975      129.05455     -24646.921      199.99551      199.96665      146.00149    
       800  -24769.819      133.66007     -24636.158      200.00513      199.97019      146.07424    
       900  -24769.893      134.10841     -24635.785      200.00924      199.96373      146.14698    
      1000  -24775.706      131.79891     -24643.907      200.00217      199.94371      146.21973    
      1100  -24777.345      126.57397     -24650.771      200.01546      199.94597      146.29248    
      1200  -24777.237      126.27428     -24650.963      200.01655      199.93377      146.36522    
      1300  -24774.334      129.93983     -24644.394      200.01639      199.91721      146.43797    
      1400  -24771.907      134.864       -24637.043      200.03366      199.91507      146.51071    
      1500  -24768.187      133.28171     -24634.905      200.03529      199.89422      146.58346    
      1600  -24771.601      132.64096     -24638.96       200.04031      199.87636      146.65621    
      1700  -24773.712      129.32121     -24644.391      200.06033      199.8726       146.72895    
      1800  -24774.163      128.08026     -24646.083      200.06124      199.84495      146.8017     
      1900  -24769.3        127.11272     -24642.187      200.07255      199.82669      146.87445    
      2000  -24768.882      133.45247     -24635.43       200.09191      199.81701      146.94719    
      2100  -24766.027      134.83277     -24631.194      200.09159      199.78812      147.01994    
      2200  -24766.51       133.69064     -24632.819      200.10714      199.77383      147.09268    
      2300  -24764.839      127.63615     -24637.203      200.12352      199.75794      147.16543    
      2400  -24766.638      127.82897     -24638.809      200.12263      199.72506      147.23818    
      2500  -24765.066      129.62357     -24635.442      200.14053      199.71277      147.31092    
      2600  -24760.414      131.51814     -24628.895      200.15226      199.69582      147.38367    
      2700  -24756.748      132.12253     -24624.625      200.15066      199.6653       147.45641    
      2800  -24756.478      131.01821     -24625.459      200.1707       199.6539       147.52916    
      2900  -24756.447      128.06575     -24628.381      200.1762       199.63053      147.60191    
      3000  -24757.663      127.73869     -24629.924      200.1789       199.60582      147.67465    
      3100  -24757.225      128.99272     -24628.232      200.19694      199.5962       147.7474     
      3200  -24755.973      133.43142     -24622.542      200.19715      199.56942      147.82015    
      3300  -24748.136      130.50364     -24617.632      200.20178      199.54905      147.89289    
      3400  -24748.229      131.56941     -24616.659      200.21682      199.54196      147.96564    
      3500  -24749.023      129.66362     -24619.359      200.21         199.5167       148.03838    
      3600  -24750.138      128.11889     -24622.019      200.21341      199.50033      148.11113    
      3700  -24749.5        129.00987     -24620.49       200.22288      199.49038      148.18388    
      3800  -24744.765      129.916       -24614.849      200.21349      199.46622      148.25662    
      3900  -24740.278      130.80574     -24609.472      200.21749      199.45783      148.32937    
      4000  -24740.81       133.23072     -24607.579      200.21899      199.44803      148.40211    
      4100  -24739.465      130.68994     -24608.775      200.20572      199.42414      148.47486    
      4200  -24738.756      128.41278     -24610.343      200.20966      199.4189       148.54761    
      4300  -24737.71       128.59486     -24609.115      200.20491      199.40737      148.62035    
      4400  -24732.744      128.14386     -24604.601      200.19138      199.38769      148.6931     
      4500  -24732.516      132.95204     -24599.564      200.19471      199.38322      148.76585    
      4600  -24730.813      134.44007     -24596.373      200.18705      199.36806      148.83859    
      4700  -24727.555      130.92573     -24596.629      200.17548      199.35083      148.91134    
      4800  -24729.059      131.19364     -24597.866      200.17635      199.34716      148.98408    
      4900  -24725.625      127.87307     -24597.751      200.16649      199.33109      149.05683    
      5000  -24725.523      130.80347     -24594.719      200.1551       199.31264      149.12958    
      5100  -24720.28       131.1197      -24589.16       200.15637      199.30572      149.20232    
      5200  -24717.154      132.52108     -24584.633      200.14798      199.2882       149.27507    
      5300  -24717.116      132.88773     -24584.228      200.13842      199.2693       149.34781    
      5400  -24717.3        131.40376     -24585.897      200.13957      199.2583       149.42056    
      5500  -24713.529      127.89213     -24585.637      200.13075      199.23391      149.49331    
      5600  -24711.441      129.91718     -24581.523      200.12518      199.21227      149.56605    
      5700  -24706.917      131.32652     -24575.591      200.12849      199.19975      149.6388     
      5800  -24704.405      133.18743     -24571.218      200.12006      199.17102      149.71154    
      5900  -24700.335      130.37471     -24569.96       200.1177       199.14478      149.78429    
      6000  -24698.375      127.93292     -24570.442      200.12462      199.12769      149.85704    
      6100  -24699.557      129.73182     -24569.826      200.11874      199.09515      149.92978    
      6200  -24697.743      130.38195     -24567.361      200.11957      199.06755      150.00253    
      6300  -24692.825      130.83779     -24561.988      200.12791      199.04453      150.07528    
      6400  -24689.958      133.42999     -24556.528      200.12455      199.00652      150.14802    
      6500  -24686.649      132.2745      -24554.374      200.12961      198.97765      150.22077    
      6600  -24683.072      126.57269     -24556.499      200.13791      198.95165      150.29351    
      6700  -24681.405      126.69618     -24554.708      200.13334      198.90985      150.36626    
      6800  -24683.767      132.6245      -24551.142      200.14239      198.88017      150.43901    
      6900  -24677.494      130.88511     -24546.609      200.1499       198.84823      150.51175    
      7000  -24672.65       131.5194      -24541.131      200.14576      198.80445      150.5845     
      7100  -24669.428      131.76033     -24537.668      200.15605      198.77403      150.65724    
      7200  -24667.63       128.26254     -24539.367      200.15976      198.73771      150.72999    
      7300  -24666.853      127.84837     -24539.005      200.15617      198.69381      150.80274    
      7400  -24665.169      130.42966     -24534.74       200.16528      198.66311      150.87548    
      7500  -24657.85       129.63129     -24528.218      200.16651      198.62478      150.94823    
      7600  -24656.608      132.3864      -24524.222      200.16256      198.5817       151.02098    
      7700  -24653.245      130.77265     -24522.472      200.17192      198.55132      151.09372    
      7800  -24651.118      130.20983     -24520.909      200.17031      198.51096      151.16647    
      7900  -24650.262      131.43089     -24518.831      200.16462      198.46821      151.23921    
      8000  -24643.343      127.83571     -24515.508      200.16983      198.43767      151.31196    
      8100  -24641.589      133.93956     -24507.649      200.16438      198.39776      151.38471    
      8200  -24635.63       132.76358     -24502.866      200.15773      198.35832      151.45745    
      8300  -24633.933      130.34839     -24503.584      200.15905      198.32716      151.5302     
      8400  -24632.884      130.14501     -24502.739      200.1476       198.28658      151.60294    
      8500  -24630.951      130.52244     -24500.429      200.14002      198.24994      151.67569    
      8600  -24626.835      129.91873     -24496.916      200.13774      198.21965      151.74844    
      8700  -24622.326      131.77683     -24490.55       200.1213       198.17894      151.82118    
      8800  -24616.452      132.36267     -24484.089      200.11062      198.14425      151.89393    
      8900  -24613.083      130.7751      -24482.308      200.10385      198.11429      151.96667    
      9000  -24616.852      133.83376     -24483.018      200.08468      198.073        152.03942    
      9100  -24608.578      128.18798     -24480.39       200.07448      198.0399       152.11217    
      9200  -24606.887      130.98795     -24475.899      200.06399      198.00668      152.18491    
      9300  -24601.619      130.93047     -24470.688      200.04358      197.96433      152.25766    
      9400  -24597.861      132.88452     -24464.977      200.03244      197.93169      152.33041    
      9500  -24591.943      132.32519     -24459.618      200.01893      197.8969       152.40315    
      9600  -24592.777      133.50207     -24459.275      199.99639      197.85268      152.4759     
      9700  -24587.454      128.22907     -24459.225      199.98376      197.817        152.54864    
      9800  -24586.508      130.59261     -24455.915      199.96789      197.77732      152.62139    
      9900  -24581.1        130.48046     -24450.62       199.94734      197.73155      152.69414    
     10000  -24573.868      130.90652     -24442.961      199.93525      197.69318      152.76688    
     10100  -24569.926      132.17352     -24437.753      199.9181       197.64843      152.83963    
     10200  -24567.86       130.74603     -24437.114      199.89769      197.59874      152.91237    
     10300  -24564.663      128.4427      -24436.22       199.88555      197.55637      152.98512    
     10400  -24562.211      130.58311     -24431.628      199.8692       197.50536      153.05787    
     10500  -24555.694      129.6173      -24426.076      199.85289      197.45187      153.13061    
     10600  -24553.686      133.30523     -24420.381      199.84144      197.40203      153.20336    
     10700  -24549.305      132.98613     -24416.319      199.82668      197.34683      153.27611    
     10800  -24546.036      129.19919     -24416.837      199.81414      197.29027      153.34885    
     10900  -24543.203      128.54947     -24414.653      199.8037       197.23334      153.4216     
     11000  -24537.998      129.0302      -24408.968      199.78988      197.17055      153.49434    
     11100  -24533.792      132.06384     -24401.728      199.77889      197.10917      153.56709    
     11200  -24526.128      129.54013     -24396.588      199.76948      197.04618      153.63984    
     11300  -24522.373      128.82959     -24393.543      199.75824      196.97874      153.71258    
     11400  -24518.154      128.17392     -24389.98       199.74723      196.9102       153.78533    
     11500  -24515.825      130.0435      -24385.782      199.73712      196.84227      153.85807    
     11600  -24511.409      129.55654     -24381.852      199.72779      196.77315      153.93082    
     11700  -24504.912      125.9325      -24378.979      199.71659      196.69985      154.00357    
     11800  -24504.111      127.41192     -24376.699      199.7062       196.62684      154.07631    
     11900  -24500.941      128.46475     -24372.476      199.69636      196.55463      154.14906    
     12000  -24495.746      132.05978     -24363.686      199.68285      196.47732      154.22181    
     12100  -24487.659      129.78309     -24357.876      199.67443      196.4041       154.29455    
     12200  -24486.649      132.00203     -24354.647      199.66166      196.32667      154.3673     
     12300  -24484.505      131.18871     -24353.316      199.64674      196.24731      154.44004    
     12400  -24479.524      128.43923     -24351.085      199.63661      196.17226      154.51279    
     12500  -24476.634      128.2254      -24348.408      199.62142      196.09246      154.58554    
     12600  -24470.402      127.70516     -24342.696      199.6032       196.0106       154.65828    
     12700  -24462.024      128.55074     -24333.473      199.59111      195.93566      154.73103    
     12800  -24461.226      135.10628     -24326.119      199.57104      195.85318      154.80377    
     12900  -24450.119      128.90737     -24321.211      199.55151      195.77187      154.87652    
     13000  -24448.229      129.32864     -24318.9        199.53703      195.69568      154.94927    
     13100  -24446.712      129.23777     -24317.475      199.51164      195.61246      155.02201    
     13200  -24443.877      131.02832     -24312.849      199.49001      195.53355      155.09476    
     13300  -24436.308      133.85212     -24302.455      199.47262      195.45784      155.1675     
     13400  -24426.027      129.91919     -24296.108      199.44247      195.37213      155.24025    
     13500  -24424.259      130.05317     -24294.206      199.41878      195.29462      155.313      
     13600  -24422.204      130.28161     -24291.923      199.39537      195.21796      155.38574    
     13700  -24416.802      129.03027     -24287.772      199.36261      195.13258      155.45849    
     13800  -24411.142      129.29806     -24281.844      199.33794      195.05539      155.53124    
     13900  -24406.146      134.46203     -24271.684      199.31093      194.97714      155.60398    
     14000  -24400.663      134.26537     -24266.398      199.27693      194.89234      155.67673    
     14100  -24394.068      129.30543     -24264.763      199.24997      194.8142       155.74947    
     14200  -24392.215      130.64782     -24261.567      199.21953      194.73244      155.82222    
     14300  -24383.405      127.10496     -24256.3        199.18572      194.64713      155.89497    
     14400  -24382.24       132.28207     -24249.958      199.15861      194.56928      155.96771    
     14500  -24371.283      129.55078     -24241.732      199.12675      194.48729      156.04046    
     14600  -24367.812      135.41225     -24232.4        199.09285      194.4017       156.1132     
     14700  -24363.417      132.99166     -24230.425      199.06634      194.32333      156.18595    
     14800  -24360.382      131.98539     -24228.396      199.03223      194.23679      156.2587     
     14900  -24356.114      130.74156     -24225.372      198.9997       194.15096      156.33144    
     15000  -24348.588      126.98303     -24221.605      198.97312      194.06983      156.40419    
     15100  -24343.175      128.01818     -24215.157      198.93954      193.97932      156.47694    
     15200  -24337.197      132.46749     -24204.729      198.91015      193.89315      156.54968    
     15300  -24328.208      128.76237     -24199.445      198.88574      193.81156      156.62243    
     15400  -24325.603      129.11186     -24196.491      198.85089      193.71756      156.69517    
     15500  -24322.379      129.38368     -24192.995      198.82481      193.63038      156.76792    
     15600  -24316.889      129.25611     -24187.633      198.80288      193.54566      156.84067    
     15700  -24312.995      131.6024      -24181.393      198.76947      193.44891      156.91341    
     15800  -24304.411      128.58601     -24175.825      198.74764      193.36206      156.98616    
     15900  -24298.033      127.65902     -24170.374      198.72629      193.27499      157.0589     
     16000  -24295.419      131.61585     -24163.804      198.69478      193.17548      157.13165    
     16100  -24288.216      132.90286     -24155.313      198.67813      193.09221      157.2044     
     16200  -24282.185      132.34336     -24149.842      198.65653      193.00206      157.27714    
     16300  -24277.277      128.76415     -24148.513      198.62536      192.90093      157.34989    
     16400  -24272.63       127.83813     -24144.792      198.61181      192.81682      157.42264    
     16500  -24266.868      129.01749     -24137.851      198.58912      192.72469      157.49538    
     16600  -24258.348      129.03433     -24129.314      198.56011      192.62707      157.56813    
     16700  -24253.877      131.75545     -24122.121      198.54816      192.54558      157.64087    
     16800  -24248.011      130.99597     -24117.015      198.52473      192.45312      157.71362    
     16900  -24247.082      129.14097     -24117.941      198.49865      192.35979      157.78637    
     17000  -24240.238      127.40552     -24112.832      198.48685      192.28148      157.85911    
     17100  -24231.653      128.75716     -24102.896      198.46048      192.18869      157.93186    
     17200  -24226.141      131.83391     -24094.308      198.43774      192.10094      158.0046     
     17300  -24220.168      131.9706      -24088.198      198.42453      192.02486      158.07735    
     17400  -24214.571      130.01817     -24084.553      198.39519      191.93616      158.1501     
     17500  -24211.731      129.43122     -24082.3        198.37261      191.85349      158.22284    
     17600  -24201.421      125.31147     -24076.11       198.35839      191.78066      158.29559    
     17700  -24195.831      130.36661     -24065.464      198.32764      191.6955       158.36833    
     17800  -24189.423      130.76795     -24058.655      198.30552      191.62074      158.44108    
     17900  -24184.288      131.31677     -24052.972      198.28709      191.55023      158.51383    
     18000  -24176.677      129.22184     -24047.455      198.25582      191.47092      158.58657    
     18100  -24172.707      130.41386     -24042.293      198.23378      191.40232      158.65932    
     18200  -24168.07       130.54707     -24037.523      198.21211      191.33728      158.73207    
     18300  -24161.299      130.16028     -24031.139      198.17913      191.26381      158.80481    
     18400  -24153.008      130.62135     -24022.386      198.15902      191.20273      158.87756    
     18500  -24144.603      130.99752     -24013.605      198.13497      191.14056      158.9503     
     18600  -24139.38       131.12183     -24008.258      198.09976      191.07096      159.02305    
     18700  -24136.938      129.71247     -24007.226      198.0778       191.01447      159.0958     
     18800  -24128.903      127.55446     -24001.349      198.05269      190.95584      159.16854    
     18900  -24121.301      128.4762      -23992.824      198.01908      190.89142      159.24129    
     19000  -24110.126      126.30219     -23983.824      197.99727      190.8401       159.31403    
     19100  -24106.174      129.37757     -23976.796      197.97043      190.78384      159.38678    
     19200  -24104.211      133.00358     -23971.207      197.93963      190.72343      159.45953    
     19300  -24093.889      128.11221     -23965.776      197.91929      190.67476      159.53227    
     19400  -24088.703      129.09121     -23959.612      197.89115      190.61962      159.60502    
     19500  -24082.699      129.16053     -23953.538      197.86219      190.56326      159.67777    
     19600  -24076.7        129.13094     -23947.569      197.84441      190.51727      159.75051    
     19700  -24071.567      129.59656     -23941.97       197.81732      190.46346      159.82326    
     19800  -24064.311      128.72611     -23935.585      197.78938      190.4094       159.896      
     19900  -24056.197      129.05173     -23927.145      197.77299      190.36524      159.96875    
     20000  -24048.888      131.14027     -23917.747      197.74827      190.3117       160.0415     
     20100  -24041.057      130.29986     -23910.757      197.72458      190.25892      160.11424    
     20200  -24036.945      128.14509     -23908.8        197.70803      190.21415      160.18699    
     20300  -24032.453      128.1508      -23904.302      197.6848       190.1621       160.25973    
     20400  -24025.031      129.33979     -23895.691      197.6657       190.11175      160.33248    
     20500  -24017.839      131.679       -23886.16       197.65263      190.06694      160.40523    
     20600  -24011.386      132.55559     -23878.83       197.63184      190.01557      160.47797    
     20700  -24005.883      132.74515     -23873.138      197.61643      189.96797      160.55072    
     20800  -23998.011      129.6934      -23868.318      197.60393      189.92129      160.62346    
     20900  -23992.212      128.33093     -23863.881      197.58559      189.86913      160.69621    
     21000  -23986.326      125.28213     -23861.044      197.57235      189.82259      160.76896    
     21100  -23981.964      129.81148     -23852.153      197.56103      189.77705      160.8417     
     21200  -23969.855      128.48207     -23841.373      197.54545      189.72657      160.91445    
     21300  -23962.437      130.09835     -23832.339      197.53439      189.68015      160.9872     
     21400  -23956.477      132.78179     -23823.696      197.52392      189.63475      161.05994    
     21500  -23949.979      133.53801     -23816.44       197.5109       189.58658      161.13269    
     21600  -23939.927      127.16471     -23812.762      197.50112      189.54192      161.20543    
     21700  -23935.742      127.12681     -23808.615      197.48822      189.49524      161.27818    
     21800  -23928.226      128.24817     -23799.978      197.47679      189.45086      161.35093    
     21900  -23920.526      131.0231      -23789.503      197.46875      189.40958      161.42367    
     22000  -23914.267      132.39829     -23781.869      197.45576      189.36416      161.49642    
     22100  -23909.305      133.25127     -23776.053      197.44431      189.32137      161.56916    
     22200  -23898.372      127.67552     -23770.697      197.43525      189.282        161.64191    
     22300  -23894.932      129.49847     -23765.433      197.42094      189.23897      161.71466    
     22400  -23886.948      127.13301     -23759.815      197.40867      189.19893      161.7874     
     22500  -23880.87       130.1798      -23750.691      197.3972       189.16072      161.86015    
     22600  -23872.055      132.53794     -23739.518      197.38231      189.12149      161.9329     
     22700  -23862.648      131.2639      -23731.384      197.36984      189.08555      162.00564    
     22800  -23854.876      129.80299     -23725.073      197.35692      189.04882      162.07839    
     22900  -23852.179      130.84373     -23721.335      197.34177      189.01211      162.15113    
     23000  -23844.592      127.43492     -23717.157      197.32907      188.97972      162.22388    
     23100  -23836.409      128.11044     -23708.299      197.31305      188.94563      162.29663    
     23200  -23827.736      129.70178     -23698.035      197.29542      188.91145      162.36937    
     23300  -23820.834      130.69504     -23690.139      197.28274      188.88313      162.44212    
     23400  -23812.667      129.76043     -23682.907      197.26462      188.85097      162.51486    
     23500  -23805.655      129.94321     -23675.712      197.24505      188.81893      162.58761    
     23600  -23798.235      129.95581     -23668.28       197.23018      188.79139      162.66036    
     23700  -23789.151      129.94139     -23659.21       197.21105      188.76178      162.7331     
     23800  -23782.229      132.00145     -23650.228      197.19191      188.7341       162.80585    
     23900  -23775.801      132.7907      -23643.01       197.17429      188.70783      162.8786     
     24000  -23767.068      128.14428     -23638.924      197.15338      188.67883      162.95134    
     24100  -23761.926      127.69695     -23634.229      197.13509      188.65308      163.02409    
     24200  -23752.981      127.02219     -23625.959      197.11794      188.62875      163.09683    
     24300  -23745.255      131.30604     -23613.949      197.09669      188.60045      163.16958    
     24400  -23736.413      130.51405     -23605.899      197.07991      188.57463      163.24233    
     24500  -23731.237      131.15464     -23600.083      197.06129      188.54849      163.31507    
     24600  -23725.008      130.50319     -23594.504      197.04011      188.52009      163.38782    
     24700  -23716.171      127.59595     -23588.575      197.02405      188.49513      163.46056    
     24800  -23709.317      130.47797     -23578.839      197.00665      188.46748      163.53331    
     24900  -23699.601      132.51103     -23567.09       196.98842      188.43847      163.60606    
     25000  -23689.987      130.65992     -23559.327      196.97344      188.41359      163.6788     
     25100  -23684.227      130.2005      -23554.026      196.95659      188.3843       163.75155    
     25200  -23679.833      129.56727     -23550.266      196.94135      188.35521      163.82429    
     25300  -23670.25       126.87694     -23543.373      196.92766      188.3285       163.89704    
     25400  -23665.604      131.89208     -23533.712      196.91053      188.29716      163.96979    
     25500  -23654.863      130.0507      -23524.813      196.8971       188.26764      164.04253    
     25600  -23647.77       132.15747     -23515.613      196.88613      188.23961      164.11528    
     25700  -23638.453      132.05111     -23506.402      196.87086      188.20724      164.18803    
     25800  -23630.037      132.54698     -23497.49       196.85712      188.17634      164.26077    
     25900  -23621.611      132.06055     -23489.55       196.84706      188.14658      164.33352    
     26000  -23610.498      126.2586      -23484.24       196.83386      188.11249      164.40626    
     26100  -23609.457      129.99673     -23479.46       196.82207      188.08076      164.47901    
     26200  -23599.071      127.77399     -23471.297      196.8113       188.04972      164.55176    
     26300  -23589.081      130.09627     -23458.984      196.79906      188.01576      164.6245     
     26400  -23580.185      130.08478     -23450.1        196.78914      187.9833       164.69725    
     26500  -23572.821      129.33267     -23443.488      196.77961      187.95141      164.76999    
     26600  -23568.446      130.54859     -23437.898      196.76755      187.91694      164.84274    
     26700  -23562.404      129.71186     -23432.692      196.75842      187.8842       164.91549    
     26800  -23553.512      127.87383     -23425.638      196.74791      187.84998      164.98823    
     26900  -23543.838      130.50809     -23413.33       196.73554      187.81542      165.06098    
     27000  -23534.397      132.12044     -23402.276      196.727        187.78423      165.13373    
     27100  -23523.507      129.88804     -23393.619      196.71462      187.74876      165.20647    
     27200  -23521.162      133.07714     -23388.085      196.70301      187.71453      165.27922    
     27300  -23509.468      126.34637     -23383.121      196.69273      187.68369      165.35196    
     27400  -23503.461      128.56034     -23374.901      196.68007      187.64977      165.42471    
     27500  -23493.509      131.69289     -23361.817      196.66773      187.61664      165.49746    
     27600  -23485.135      133.47466     -23351.66       196.65659      187.58677      165.5702     
     27700  -23477.488      131.51183     -23345.977      196.64041      187.55423      165.64295    
     27800  -23471.086      129.82034     -23341.265      196.62626      187.52376      165.71569    
     27900  -23463.899      129.65944     -23334.24       196.61336      187.49471      165.78844    
     28000  -23453.729      129.21727     -23324.512      196.595        187.4624       165.86119    
     28100  -23442.447      130.94986     -23311.497      196.57836      187.43375      165.93393    
     28200  -23434.168      131.70089     -23302.467      196.5627       187.40631      166.00668    
     28300  -23426.175      129.83465     -23296.34       196.54239      187.37566      166.07943    
     28400  -23421.088      130.55615     -23290.532      196.52401      187.34808      166.15217    
     28500  -23411.992      128.63316     -23283.359      196.50632      187.32289      166.22492    
     28600  -23403.377      129.34916     -23274.027      196.48417      187.29386      166.29766    
     28700  -23393.042      131.99196     -23261.05       196.46547      187.26731      166.37041    
     28800  -23386.1        133.3894      -23252.711      196.4471       187.24241      166.44316    
     28900  -23380.932      132.37412     -23248.557      196.42403      187.2147       166.5159     
     29000  -23370.695      128.55243     -23242.142      196.40133      187.18753      166.58865    
     29100  -23364.136      130.83752     -23233.299      196.38024      187.16215      166.66139    
     29200  -23353.487      130.77467     -23222.712      196.35832      187.13521      166.73414    
     29300  -23342.949      132.94341     -23210.006      196.3348       187.10784      166.80689    
     29400  -23333.724      132.19369     -23201.53       196.3136       187.0826       166.87963    
     29500  -23326.54       131.72403     -23194.816      196.29115      187.0545       166.95238    
     29600  -23318.879      130.11634     -23188.762      196.26916      187.02743      167.02512    
     29700  -23310.751      128.44606     -23182.305      196.24706      187.00057      167.09787    
     29800  -23301.818      127.46479     -23174.353      196.22576      186.97295      167.17062    
     29900  -23293.654      131.05075     -23162.603      196.20346      186.94503      167.24336    
     30000  -23281.741      130.38468     -23151.356      196.18157      186.91682      167.31611    
     30100  -23276.267      131.51917     -23144.748      196.16013      186.88785      167.38886    
     30200  -23269.957      130.06754     -23139.889      196.13808      186.85732      167.4616     
     30300  -23261.64       129.34153     -23132.298      196.11777      186.82847      167.53435    
     30400  -23252.474      130.1653      -23122.309      196.0958       186.7966       167.60709    
     30500  -23240.178      128.1606      -23112.017      196.0748       186.76544      167.67984    
     30600  -23232.864      130.74817     -23102.116      196.05523      186.7347       167.75259    
     30700  -23223.119      129.69791     -23093.421      196.03526      186.70195      167.82533    
     30800  -23215.866      129.83365     -23086.033      196.01665      186.67017      167.89808    
     30900  -23210.372      129.63968     -23080.733      195.99732      186.63638      167.97082    
     31000  -23203.739      126.90204     -23076.837      195.97842      186.60109      168.04357    
     31100  -23192.172      126.86225     -23065.309      195.96183      186.56804      168.11632    
     31200  -23182.821      130.01078     -23052.81       195.94374      186.53236      168.18906    
     31300  -23172.434      130.50387     -23041.93       195.92392      186.49457      168.26181    
     31400  -23162.796      130.23447     -23032.562      195.90907      186.4603       168.33456    
     31500  -23155.129      130.64547     -23024.484      195.89135      186.42265      168.4073     
     31600  -23144.267      126.81035     -23017.456      195.87086      186.38252      168.48005    
     31700  -23137.18       126.69336     -23010.487      195.8576       186.34833      168.55279    
     31800  -23128.452      128.03357     -23000.419      195.8408       186.31008      168.62554    
     31900  -23119.338      131.46746     -22987.87       195.821        186.26863      168.69829    
     32000  -23107.138      128.99163     -22978.146      195.80784      186.23374      168.77103    
     32100  -23101.455      130.36737     -22971.088      195.79097      186.19467      168.84378    
     32200  -23094.221      128.9894      -22965.232      195.77061      186.15309      168.91652    
     32300  -23085.428      128.34955     -22957.078      195.75597      186.11667      168.98927    
     32400  -23075.76       128.77729     -22946.983      195.73822      186.07691      169.06202    
     32500  -23067.495      131.41914     -22936.076      195.71747      186.03526      169.13476    
     32600  -23057.477      132.0003      -22925.477      195.70275      185.99921      169.20751    
     32700  -23045.139      130.10064     -22915.038      195.68278      185.959        169.28025    
     32800  -23037.925      132.37681     -22905.548      195.66058      185.91773      169.353      
     32900  -23030.66       130.85074     -22899.809      195.64482      185.88279      169.42575    
     33000  -23023.484      129.35103     -22894.133      195.62326      185.84443      169.49849    
     33100  -23014.654      129.32949     -22885.324      195.59962      185.80383      169.57124    
     33200  -23003.875      130.42742     -22873.448      195.58198      185.76985      169.64399    
     33300  -22995.289      134.18541     -22861.104      195.5595       185.73295      169.71673    
     33400  -22983.604      130.88555     -22852.719      195.53198      185.69217      169.78948    
     33500  -22976.142      130.73568     -22845.407      195.51183      185.65874      169.86222    
     33600  -22968.498      130.77879     -22837.719      195.48807      185.62327      169.93497    
     33700  -22960.192      130.64017     -22829.552      195.45692      185.58322      170.00772    
     33800  -22948.859      128.70953     -22820.149      195.43433      185.55053      170.08046    
     33900  -22939.669      131.67146     -22807.998      195.41059      185.51727      170.15321    
     34000  -22929.133      132.56026     -22796.572      195.37849      185.47855      170.22595    
     34100  -22921.803      132.14757     -22789.655      195.35424      185.44581      170.2987     
     34200  -22912.493      127.80727     -22784.686      195.3288       185.41298      170.37145    
     34300  -22903.882      127.97712     -22775.904      195.29552      185.37439      170.44419    
     34400  -22894.245      127.97893     -22766.266      195.26916      185.34308      170.51694    
     34500  -22886.21       131.09091     -22755.119      195.24167      185.31033      170.58969    
     34600  -22873.572      130.76976     -22742.802      195.20797      185.27152      170.66243    
     34700  -22864.885      130.35388     -22734.531      195.18133      185.24037      170.73518    
     34800  -22860.681      129.61313     -22731.068      195.15126      185.20661      170.80792    
     34900  -22849.802      127.89966     -22721.903      195.11763      185.16764      170.88067    
     35000  -22841.4        131.01634     -22710.383      195.09187      185.13714      170.95342    
     35100  -22827.965      129.38882     -22698.576      195.06105      185.10201      171.02616    
     35200  -22821.92       133.20594     -22688.714      195.02589      185.06214      171.09891    
     35300  -22813.521      131.96423     -22681.557      195.0013       185.03149      171.17165    
     35400  -22804.925      127.52617     -22677.399      194.9715       184.99577      171.2444     
     35500  -22796.261      126.93591     -22669.326      194.93599      184.95429      171.31715    
     35600  -22785.353      127.79789     -22657.555      194.91133      184.9225       171.38989    
     35700  -22774.618      129.86741     -22644.75       194.8823       184.88446      171.46264    
     35800  -22765.565      131.40726     -22634.157      194.84816      184.84199      171.53539    
     35900  -22755.571      130.74909     -22624.821      194.82177      184.80732      171.60813    
     36000  -22747.749      130.94162     -22616.808      194.79418      184.76858      171.68088    
     36100  -22736.354      125.41356     -22610.94       194.76205      184.72505      171.75362    
     36200  -22730.892      129.05163     -22601.84       194.73473      184.6876       171.82637    
     36300  -22718.916      130.67465     -22588.241      194.70861      184.64841      171.89912    
     36400  -22707.846      130.18741     -22577.658      194.67931      184.60405      171.97186    
     36500  -22700.747      130.79191     -22569.955      194.65399      184.56444      172.04461    
     36600  -22690.433      127.45416     -22562.978      194.62676      184.52196      172.11735    
     36700  -22685.021      129.97417     -22555.047      194.598        184.4751       172.1901     
     36800  -22675.997      132.15673     -22543.84       194.57545      184.43431      172.26285    
     36900  -22660.803      130.25824     -22530.545      194.54883      184.39022      172.33559    
     37000  -22650.675      130.6617      -22520.013      194.51948      184.34184      172.40834    
     37100  -22643.007      130.79974     -22512.207      194.49745      184.29896      172.48108    
     37200  -22636.902      129.97912     -22506.923      194.47348      184.25467      172.55383    
     37300  -22623.164      125.45599     -22497.708      194.44309      184.20393      172.62658    
     37400  -22617.43       131.10671     -22486.323      194.42149      184.15988      172.69932    
     37500  -22604.085      127.61911     -22476.466      194.40045      184.11807      172.77207    
     37600  -22597.002      130.61983     -22466.382      194.36796      184.06463      172.84482    
     37700  -22587.358      130.33564     -22457.022      194.34484      184.02024      172.91756    
     37800  -22577.548      127.63359     -22449.914      194.32574      183.97852      172.99031    
     37900  -22571.781      128.35696     -22443.424      194.2924       183.92452      173.06305    
     38000  -22559.351      126.74852     -22432.602      194.26686      183.87844      173.1358     
     38100  -22549.494      130.853       -22418.641      194.24748      183.83698      173.20855    
     38200  -22538.281      130.22841     -22408.053      194.21444      183.78418      173.28129    
     38300  -22528.686      130.20788     -22398.478      194.18506      183.73726      173.35404    
     38400  -22519.432      129.61571     -22389.816      194.16541      183.69819      173.42678    
     38500  -22514.227      130.92203     -22383.305      194.13268      183.64731      173.49953    
     38600  -22502.484      126.508       -22375.976      194.09946      183.59875      173.57228    
     38700  -22492.349      128.22618     -22364.123      194.07885      183.56094      173.64502    
     38800  -22480.256      129.88551     -22350.371      194.04691      183.51283      173.71777    
     38900  -22471.876      130.75507     -22341.121      194.01078      183.46314      173.79052    
     39000  -22464.374      130.6545      -22333.719      193.98722      183.42538      173.86326    
     39100  -22453.664      127.46263     -22326.201      193.95411      183.38009      173.93601    
     39200  -22443.366      127.53578     -22315.83       193.91595      183.33003      174.00875    
     39300  -22433.575      131.89628     -22301.679      193.89115      183.29403      174.0815     
     39400  -22423.18       132.35617     -22290.824      193.85738      183.25151      174.15425    
     39500  -22414.505      131.22774     -22283.278      193.81632      183.20179      174.22699    
     39600  -22406.877      129.41843     -22277.459      193.78969      183.16599      174.29974    
     39700  -22397.348      128.81713     -22268.53       193.75611      183.12546      174.37248    
     39800  -22387.804      130.12787     -22257.676      193.71382      183.07682      174.44523    
     39900  -22378.755      131.50933     -22247.245      193.68619      183.04188      174.51798    
     40000  -22367.147      130.30507     -22236.842      193.65207      183.00181      174.59072    
     40100  -22355.13       129.12897     -22226.001      193.60747      182.95383      174.66347    
     40200  -22344.58       131.83179     -22212.748      193.5776       182.91825      174.73622    
     40300  -22334.795      133.07192     -22201.723      193.54433      182.87955      174.80896    
     40400  -22327.49       131.41826     -22196.072      193.49999      182.83157      174.88171    
     40500  -22320.141      131.09395     -22189.047      193.4677       182.79485      174.95445    
     40600  -22307.081      128.29687     -22178.784      193.43525      182.75698      175.0272     
     40700  -22296.58       129.36588     -22167.214      193.39165      182.70967      175.09995    
     40800  -22288.234      131.40299     -22156.831      193.35899      182.67366      175.17269    
     40900  -22279.848      130.05484     -22149.794      193.32714      182.63608      175.24544    
     41000  -22272.801      129.21315     -22143.587      193.2837       182.58727      175.31818    
     41100  -22259.738      126.38531     -22133.353      193.24977      182.54918      175.39093    
     41200  -22248.014      128.03014     -22119.984      193.21956      182.51252      175.46368    
     41300  -22240.127      131.82925     -22108.298      193.17709      182.46264      175.53642    
     41400  -22231.58       132.87802     -22098.702      193.14207      182.42097      175.60917    
     41500  -22218.912      128.47845     -22090.433      193.11486      182.38633      175.68191    
     41600  -22212.738      129.92014     -22082.817      193.07409      182.33656      175.75466    
     41700  -22202.508      126.51238     -22075.995      193.03824      182.29119      175.82741    
     41800  -22193.381      126.46985     -22066.911      193.01427      182.25756      175.90015    
     41900  -22180.126      127.50439     -22052.622      192.97678      182.20846      175.9729     
     42000  -22171.375      130.44578     -22040.929      192.94013      182.15923      176.04565    
     42100  -22162.251      130.97038     -22031.28       192.91718      182.12385      176.11839    
     42200  -22153.985      131.02764     -22022.957      192.88277      182.07594      176.19114    
     42300  -22145.322      128.17137     -22017.151      192.84664      182.02483      176.26388    
     42400  -22134.708      127.31795     -22007.39       192.8235       181.9864       176.33663    
     42500  -22121.434      128.24452     -21993.189      192.79197      181.93981      176.40938    
     42600  -22111.962      129.78945     -21982.173      192.75645      181.88765      176.48212    
     42700  -22102.409      131.06164     -21971.347      192.73312      181.84664      176.55487    
     42800  -22093.589      132.35331     -21961.235      192.70502      181.8015       176.62761    
     42900  -22083.605      129.95907     -21953.646      192.67079      181.74954      176.70036    
     43000  -22075.07       127.68513     -21947.385      192.64719      181.7064       176.77311    
     43100  -22065.721      128.77292     -21936.948      192.62126      181.66228      176.84585    
     43200  -22054.201      130.61196     -21923.589      192.58787      181.6112       176.9186     
     43300  -22042.345      130.09157     -21912.253      192.56257      181.56605      176.99135    
     43400  -22036.046      133.02478     -21903.022      192.53778      181.52296      177.06409    
     43500  -22024.561      130.01102     -21894.55       192.50521      181.47283      177.13684    
     43600  -22015.186      129.51519     -21885.671      192.47687      181.426        177.20958    
     43700  -22002.969      128.02458     -21874.944      192.4543       181.38431      177.28233    
     43800  -21995.031      133.60975     -21861.421      192.42331      181.33582      177.35508    
     43900  -21981.966      131.24706     -21850.719      192.39381      181.28945      177.42782    
     44000  -21974.976      130.27608     -21844.7        192.37265      181.24977      177.50057    
     44100  -21967.148      130.41101     -21836.737      192.33999      181.20225      177.57331    
     44200  -21955.072      129.00124     -21826.071      192.3087       181.15676      177.64606    
     44300  -21944.297      129.36546     -21814.931      192.28765      181.11969      177.71881    
     44400  -21934.254      132.14349     -21802.111      192.25374      181.07333      177.79155    
     44500  -21922.543      134.00351     -21788.54       192.21917      181.0281       177.8643     
     44600  -21912.167      131.10384     -21781.063      192.19816      180.99311      177.93704    
     44700  -21904.189      129.03688     -21775.152      192.16512      180.94944      178.00979    
     44800  -21894.117      128.63903     -21765.478      192.12814      180.90509      178.08254    
     44900  -21884.214      130.29491     -21753.919      192.10447      180.87161      178.15528    
     45000  -21871.603      129.44222     -21742.161      192.0754       180.83353      178.22803    
     45100  -21865.859      133.49454     -21732.365      192.03556      180.78912      178.30078    
     45200  -21857.589      131.20002     -21726.389      192.00717      180.75552      178.37352    
     45300  -21848.182      129.83103     -21718.351      191.98115      180.72226      178.44627    
     45400  -21836.294      129.11502     -21707.179      191.94131      180.67886      178.51901    
     45500  -21826.791      133.84921     -21692.942      191.90926      180.64469      178.59176    
     45600  -21815.594      134.1078      -21681.486      191.8829       180.61456      178.66451    
     45700  -21803.44       130.75182     -21672.689      191.84323      180.57189      178.73725    
     45800  -21794.843      130.66353     -21664.179      191.80811      180.53784      178.81       
     45900  -21785.094      129.58388     -21655.511      191.78247      180.51038      178.88274    
     46000  -21775.395      129.24372     -21646.152      191.74462      180.47083      178.95549    
     46100  -21765.629      129.8168      -21635.812      191.70714      180.4347       179.02824    
     46200  -21754.042      129.79494     -21624.247      191.68132      180.40916      179.10098    
     46300  -21746.001      132.69364     -21613.308      191.64656      180.37296      179.17373    
     46400  -21735.474      131.00104     -21604.473      191.60766      180.33472      179.24648    
     46500  -21725.832      127.53478     -21598.297      191.58121      180.30913      179.31922    
     46600  -21716.18       127.6983      -21588.482      191.54762      180.27432      179.39197    
     46700  -21708.061      132.46736     -21575.594      191.50918      180.23584      179.46471    
     46800  -21693.357      129.44988     -21563.907      191.48264      180.20928      179.53746    
     46900  -21684.646      131.23729     -21553.409      191.45041      180.17612      179.61021    
     47000  -21673.36       129.25181     -21544.108      191.4151       180.1383       179.68295    
     47100  -21664.246      128.26805     -21535.978      191.38874      180.10999      179.7557     
     47200  -21656.732      127.58538     -21529.147      191.35881      180.07721      179.82844    
     47300  -21647.082      126.55142     -21520.53       191.32511      180.03983      179.90119    
     47400  -21636.389      131.12361     -21505.266      191.2993       180.00926      179.97394    
     47500  -21625.645      132.05661     -21493.588      191.27224      179.97795      180.04668    
     47600  -21614.256      129.84418     -21484.412      191.23812      179.93837      180.11943    
     47700  -21609.2        133.8597      -21475.341      191.21109      179.90496      180.19218    
     47800  -21594.436      127.23092     -21467.205      191.18883      179.87662      180.26492    
     47900  -21585.53       127.71322     -21457.817      191.15676      179.8366       180.33767    
     48000  -21573.771      130.43202     -21443.339      191.12947      179.80043      180.41041    
     48100  -21560.57       130.06626     -21430.504      191.10871      179.77097      180.48316    
     48200  -21553.826      132.69191     -21421.134      191.08039      179.7329       180.55591    
     48300  -21542.284      128.02949     -21414.255      191.05383      179.69504      180.62865    
     48400  -21534.136      128.60271     -21405.534      191.03451      179.66416      180.7014     
     48500  -21524.553      129.86707     -21394.686      191.00868      179.62635      180.77414    
     48600  -21511.218      127.74861     -21383.469      190.98388      179.58894      180.84689    
     48700  -21505.321      133.06602     -21372.255      190.96338      179.5544       180.91964    
     48800  -21491.571      131.91484     -21359.656      190.94117      179.51811      180.99238    
     48900  -21479.108      132.32053     -21346.788      190.91642      179.47961      181.06513    
     49000  -21469.326      130.49202     -21338.834      190.89562      179.4451       181.13787    
     49100  -21461.115      128.72069     -21332.394      190.87581      179.40986      181.21062    
     49200  -21451.673      129.21351     -21322.459      190.85123      179.37165      181.28337    
     49300  -21438.825      127.53864     -21311.286      190.83098      179.33725      181.35611    
     49400  -21431.76       132.61293     -21299.147      190.81227      179.30338      181.42886    
     49500  -21420.972      132.55565     -21288.416      190.78979      179.26641      181.50161    
     49600  -21410.491      128.66934     -21281.822      190.76658      179.23081      181.57435    
     49700  -21402.554      128.82269     -21273.732      190.74865      179.1976       181.6471     
     49800  -21392.054      129.02346     -21263.03       190.72657      179.16234      181.71984    
     49900  -21380.789      131.31549     -21249.473      190.70259      179.12662      181.79259    
     50000  -21367.628      132.46997     -21235.158      190.6827       179.09452      181.86534    
     50100  -21358.324      132.10042     -21226.223      190.66161      179.06138      181.93808    
     50200  -21349.645      131.95877     -21217.686      190.63685      179.02644      182.01083    
     50300  -21338.497      129.52321     -21208.974      190.61694      178.996        182.08357    
     50400  -21330.219      129.52938     -21200.689      190.59678      178.96515      182.15632    
     50500  -21319.969      128.18016     -21191.789      190.57063      178.93055      182.22907    
     50600  -21311.729      130.61965     -21181.109      190.5491       178.90134      182.30181    
     50700  -21299.449      132.53519     -21166.913      190.52891      178.87311      182.37456    
     50800  -21286.291      131.10199     -21155.189      190.50031      178.83923      182.44731    
     50900  -21276.782      128.80419     -21147.978      190.47669      178.8105       182.52005    
     51000  -21270.48       130.25458     -21140.225      190.45861      178.78659      182.5928     
     51100  -21259.254      129.5726      -21129.681      190.42945      178.75496      182.66554    
     51200  -21249.176      132.0325      -21117.143      190.40049      178.72392      182.73829    
     51300  -21235.461      130.67393     -21104.787      190.3828       178.70235      182.81104    
     51400  -21228.045      132.80809     -21095.237      190.35601      178.67443      182.88378    
     51500  -21216.864      127.49841     -21089.366      190.32483      178.64413      182.95653    
     51600  -21209.222      129.35774     -21079.864      190.30597      178.62337      183.02927    
     51700  -21201.354      134.05363     -21067.301      190.28058      178.59901      183.10202    
     51800  -21186.626      132.97459     -21053.652      190.24663      178.56787      183.17477    
     51900  -21174.096      131.00909     -21043.087      190.22626      178.54886      183.24751    
     52000  -21167.128      128.99406     -21038.134      190.20242      178.52683      183.32026    
     52100  -21155.307      126.91464     -21028.393      190.16766      178.49657      183.39301    
     52200  -21145.549      130.29564     -21015.254      190.14305      178.47557      183.46575    
     52300  -21135.203      133.25806     -21001.945      190.12176      178.45693      183.5385     
     52400  -21122.963      131.2433      -20991.72       190.0889       178.42799      183.61124    
     52500  -21114.996      130.22193     -20984.774      190.06097      178.40521      183.68399    
     52600  -21106.493      130.44936     -20976.043      190.0404       178.38843      183.75674    
     52700  -21096.322      131.70701     -20964.615      190.01055      178.36175      183.82948    
     52800  -21081.987      129.36168     -20952.625      189.9812       178.33741      183.90223    
     52900  -21073.315      131.77064     -20941.544      189.95987      178.32033      183.97497    
     53000  -21062.381      128.52541     -20933.856      189.93271      178.29452      184.04772    
     53100  -21055.501      129.65456     -20925.847      189.90347      178.26944      184.12047    
     53200  -21041.294      127.19375     -20914.1        189.88318      178.25198      184.19321    
     53300  -21031.135      133.08671     -20898.049      189.85436      178.22516      184.26596    
     53400  -21018.478      131.43678     -20887.041      189.82699      178.20013      184.3387     
     53500  -21010.417      131.10416     -20879.313      189.8085       178.18314      184.41145    
     53600  -21000.667      129.36221     -20871.305      189.78163      178.15601      184.4842     
     53700  -20989.95       128.84719     -20861.103      189.75477      178.12931      184.55694    
     53800  -20982.022      133.4511      -20848.571      189.73911      178.11253      184.62969    
     53900  -20966.355      132.70581     -20833.649      189.71426      178.08577      184.70244    
     54000  -20954.053      130.51219     -20823.541      189.68596      178.05446      184.77518    
     54100  -20948.032      130.27392     -20817.758      189.67066      178.03611      184.84793    
     54200  -20939.085      130.53267     -20808.552      189.65114      178.01278      184.92067    
     54300  -20927.675      128.95374     -20798.721      189.62473      177.98086      184.99342    
     54400  -20915.911      129.40242     -20786.508      189.60704      177.95727      185.06617    
     54500  -20905.747      133.38393     -20772.363      189.59057      177.93345      185.13891    
     54600  -20892.891      132.43402     -20760.457      189.56694      177.90182      185.21166    
     54700  -20882.788      127.71851     -20755.07       189.55084      177.87785      185.2844     
     54800  -20875.193      129.23705     -20745.956      189.53566      177.85327      185.35715    
     54900  -20866.707      130.98247     -20735.725      189.51329      177.82136      185.4299     
     55000  -20854.857      129.20689     -20725.65       189.49793      177.79603      185.50264    
     55100  -20846.959      130.65022     -20716.308      189.48342      177.77105      185.57539    
     55200  -20835.65       128.6474      -20707.002      189.4621       177.73878      185.64814    
     55300  -20825.858      131.4168      -20694.441      189.44717      177.71219      185.72088    
     55400  -20809.207      129.97122     -20679.236      189.4327       177.68592      185.79363    
     55500  -20799.415      131.77265     -20667.642      189.41312      177.65538      185.86637    
     55600  -20791.917      132.39532     -20659.522      189.39713      177.62781      185.93912    
     55700  -20778.809      128.64205     -20650.167      189.38291      177.60127      186.01187    
     55800  -20770.002      130.29627     -20639.705      189.36544      177.57288      186.08461    
     55900  -20761.136      130.92039     -20630.216      189.35054      177.54626      186.15736    
     56000  -20750.394      128.37503     -20622.018      189.33438      177.51891      186.2301     
     56100  -20739.806      126.58669     -20613.219      189.3156       177.48911      186.30285    
     56200  -20727.936      126.39367     -20601.542      189.30008      177.46313      186.3756     
     56300  -20718.406      133.11815     -20585.288      189.28484      177.43781      186.44834    
     56400  -20702.047      129.06916     -20572.977      189.2652       177.40761      186.52109    
     56500  -20696.693      131.83844     -20564.855      189.24817      177.38179      186.59383    
     56600  -20686.852      130.42912     -20556.423      189.23291      177.35809      186.66658    
     56700  -20676.238      130.60058     -20545.637      189.21412      177.32996      186.73933    
     56800  -20664.686      130.70524     -20533.981      189.19633      177.30335      186.81207    
     56900  -20653.576      130.20867     -20523.368      189.1801       177.28075      186.88482    
     57000  -20643.367      126.85526     -20516.512      189.16111      177.25474      186.95757    
     57100  -20633.619      126.97274     -20506.646      189.14333      177.22995      187.03031    
     57200  -20622.652      129.00754     -20493.644      189.12434      177.20613      187.10306    
     57300  -20610.832      132.46796     -20478.364      189.102        177.18042      187.1758     
     57400  -20599.484      132.8285      -20466.656      189.08458      177.1587       187.24855    
     57500  -20589.519      131.89586     -20457.623      189.06523      177.13575      187.3213     
     57600  -20579.614      131.83372     -20447.78       189.04055      177.10992      187.39404    
     57700  -20564.979      126.6963      -20438.283      189.02034      177.08871      187.46679    
     57800  -20559.875      130.53109     -20429.344      189.00202      177.06975      187.53953    
     57900  -20547.737      128.2089      -20419.528      188.97926      177.04679      187.61228    
     58000  -20539.213      129.1326      -20410.08       188.95716      177.02564      187.68503    
     58100  -20530.06       128.80804     -20401.252      188.9366       177.00702      187.75777    
     58200  -20515.534      126.69935     -20388.835      188.91208      176.98494      187.83052    
     58300  -20505.888      132.75358     -20373.134      188.88965      176.9653       187.90327    
     58400  -20493.9        132.74802     -20361.152      188.86813      176.94728      187.97601    
     58500  -20481.012      129.58146     -20351.43       188.84065      176.92423      188.04876    
     58600  -20473.366      131.6539      -20341.712      188.81825      176.90666      188.1215     
     58700  -20460.752      130.28009     -20330.472      188.79603      176.88903      188.19425    
     58800  -20450.109      129.89497     -20320.214      188.76719      176.86678      188.267      
     58900  -20439.653      129.25512     -20310.398      188.74542      176.8497       188.33974    
     59000  -20431.517      128.60954     -20302.907      188.72561      176.8342       188.41249    
     59100  -20420.834      127.662       -20293.172      188.69734      176.81334      188.48523    
     59200  -20408.627      129.29982     -20279.327      188.67286      176.7945       188.55798    
     59300  -20395.355      129.1929      -20266.162      188.65199      176.77865      188.63073    
     59400  -20384.765      130.24335     -20254.522      188.62408      176.75608      188.70347    
     59500  -20375.603      131.10964     -20244.494      188.59852      176.73744      188.77622    
     59600  -20365.393      130.10341     -20235.29       188.57861      176.72239      188.84897    
     59700  -20357.135      129.29516     -20227.84       188.55156      176.69939      188.92171    
     59800  -20345.492      126.68001     -20218.812      188.52772      176.68089      188.99446    
     59900  -20334.619      130.362       -20204.257      188.50666      176.66511      189.0672     
     60000  -20320.127      129.41858     -20190.708      188.4802       176.64123      189.13995    
     60100  -20307.11       130.01189     -20177.099      188.45707      176.62003      189.2127     
     60200  -20298.253      132.7878      -20165.465      188.43654      176.6037       189.28544    
     60300  -20287.735      130.05591     -20157.679      188.41296      176.58317      189.35819    
     60400  -20277.587      130.4419      -20147.145      188.39015      176.55966      189.43093    
     60500  -20263.848      128.58388     -20135.264      188.36991      176.54055      189.50368    
     60600  -20252.516      128.99327     -20123.522      188.34677      176.51933      189.57643    
     60700  -20241.254      127.55052     -20113.704      188.32361      176.49438      189.64917    
     60800  -20234.041      129.38274     -20104.659      188.30575      176.47459      189.72192    
     60900  -20221.244      128.16098     -20093.083      188.28346      176.4515       189.79466    
     61000  -20208.049      130.64376     -20077.406      188.26043      176.42632      189.86741    
     61100  -20194.902      133.0534      -20061.849      188.2449       176.40596      189.94016    
     61200  -20186.43       133.81416     -20052.616      188.22334      176.38062      190.0129     
     61300  -20175.196      131.93051     -20043.265      188.20235      176.35596      190.08565    
     61400  -20165.336      131.85495     -20033.481      188.18657      176.33467      190.1584     
     61500  -20155.035      131.20156     -20023.833      188.16635      176.30785      190.23114    
     61600  -20140.576      128.14383     -20012.432      188.14716      176.28162      190.30389    
     61700  -20130.997      130.94988     -20000.047      188.13154      176.2598       190.37663    
     61800  -20116.453      127.32084     -19989.133      188.11186      176.232        190.44938    
     61900  -20107.617      128.06106     -19979.556      188.09264      176.20479      190.52213    
     62000  -20097.342      129.44979     -19967.892      188.07775      176.18153      190.59487    
     62100  -20085.759      131.1763      -19954.582      188.05807      176.15294      190.66762    
     62200  -20071.037      130.78362     -19940.254      188.04047      176.12607      190.74036    
     62300  -20059.51       132.99779     -19926.512      188.02612      176.10263      190.81311    
     62400  -20051.586      132.86144     -19918.724      188.0064       176.07422      190.88586    
     62500  -20037.461      129.27921     -19908.181      187.98702      176.04629      190.9586     
     62600  -20028.238      131.33703     -19896.901      187.97247      176.02212      191.03135    
     62700  -20016.788      131.2371      -19885.551      187.95358      175.99491      191.1041     
     62800  -20005.295      129.94904     -19875.346      187.93375      175.96645      191.17684    
     62900  -19992.608      127.05134     -19865.556      187.91938      175.9434       191.24959    
     63000  -19985.416      129.60952     -19855.807      187.89955      175.9161       191.32233    
     63100  -19970.286      125.47861     -19844.808      187.87878      175.88771      191.39508    
     63200  -19957.919      130.50531     -19827.414      187.86514      175.86569      191.46783    
     63300  -19941.316      129.54114     -19811.775      187.84289      175.83708      191.54057    
     63400  -19930.574      130.63546     -19799.939      187.82094      175.80939      191.61332    
     63500  -19923.4        132.93006     -19790.47       187.80645      175.78735      191.68606    
     63600  -19908.588      129.57457     -19779.014      187.78447      175.75941      191.75881    
     63700  -19895.435      129.34917     -19766.086      187.76132      175.73314      191.83156    
     63800  -19883.769      130.93786     -19752.831      187.74426      175.71188      191.9043     
     63900  -19874.003      129.89382     -19744.109      187.72174      175.68436      191.97705    
     64000  -19858.984      126.22628     -19732.757      187.70033      175.65954      192.0498     
     64100  -19849.712      131.03983     -19718.672      187.68112      175.63855      192.12254    
     64200  -19833.606      129.89987     -19703.706      187.65585      175.6115       192.19529    
     64300  -19821.382      131.96005     -19689.422      187.6336       175.58716      192.26803    
     64400  -19808.654      129.68505     -19678.969      187.61626      175.5681       192.34078    
     64500  -19799.186      129.7727      -19669.413      187.58753      175.54052      192.41353    
     64600  -19786.995      129.87897     -19657.116      187.56427      175.51768      192.48627    
     64700  -19778.216      133.31308     -19644.903      187.54466      175.49825      192.55902    
     64800  -19763.107      129.7002      -19633.407      187.51499      175.47086      192.63176    
     64900  -19750.856      128.28152     -19622.574      187.49226      175.45032      192.70451    
     65000  -19738.729      127.72541     -19611.003      187.47067      175.43148      192.77726    
     65100  -19725.986      126.95187     -19599.035      187.44158      175.40514      192.85       
     65200  -19712.798      128.65287     -19584.145      187.41826      175.38481      192.92275    
     65300  -19698.981      133.0896      -19565.891      187.39383      175.36455      192.99549    
     65400  -19682.062      130.98746     -19551.075      187.36335      175.33936      193.06824    
     65500  -19672.102      131.26452     -19540.838      187.34101      175.32115      193.14099    
     65600  -19658.382      130.36203     -19528.02       187.31559      175.29992      193.21373    
     65700  -19643.615      128.0953      -19515.519      187.28439      175.27453      193.28648    
     65800  -19633.454      130.10096     -19503.353      187.26168      175.2565       193.35923    
     65900  -19619.428      128.34799     -19491.08       187.23581      175.2354       193.43197    
     66000  -19610.036      132.36986     -19477.666      187.20435      175.20953      193.50472    
     66100  -19595.855      132.18776     -19463.667      187.1828       175.19334      193.57746    
     66200  -19581.508      131.59873     -19449.909      187.15549      175.17084      193.65021    
     66300  -19569.012      132.66755     -19436.345      187.12583      175.14557      193.72296    
     66400  -19555.428      131.93851     -19423.489      187.10399      175.12777      193.7957     
     66500  -19541.456      130.00116     -19411.455      187.0748       175.10354      193.86845    
     66600  -19530.054      132.77081     -19397.283      187.04678      175.08062      193.94119    
     66700  -19514.828      131.98985     -19382.838      187.0247       175.06167      194.01394    
     66800  -19501.371      130.91927     -19370.452      186.99504      175.03464      194.08669    
     66900  -19486.107      129.17544     -19356.932      186.96811      175.01205      194.15943    
     67000  -19472.518      130.62504     -19341.893      186.94576      174.99342      194.23218    
     67100  -19460.647      131.9448      -19328.703      186.91576      174.96547      194.30493    
     67200  -19447.132      131.65098     -19315.481      186.89213      174.94229      194.37767    
     67300  -19433.337      131.42743     -19301.909      186.86905      174.92089      194.45042    
     67400  -19420.576      132.62341     -19287.953      186.83933      174.89362      194.52316    
     67500  -19403.326      130.30179     -19273.024      186.81612      174.87135      194.59591    
     67600  -19389.2        130.07467     -19259.126      186.79297      174.84628      194.66866    
     67700  -19375.2        130.71183     -19244.489      186.76497      174.81733      194.7414     
     67800  -19361.002      131.27923     -19229.723      186.74371      174.79652      194.81415    
     67900  -19346.048      130.45711     -19215.591      186.71868      174.77029      194.88689    
     68000  -19332.224      130.34986     -19201.874      186.69242      174.74116      194.95964    
     68100  -19319.245      131.74131     -19187.503      186.67186      174.7183       195.03239    
     68200  -19305.543      131.83626     -19173.706      186.64669      174.69125      195.10513    
     68300  -19290.282      130.65365     -19159.628      186.62105      174.6632       195.17788    
     68400  -19277.22       132.51426     -19144.705      186.59975      174.63783      195.25062    
     68500  -19260.446      130.29797     -19130.148      186.57589      174.60913      195.32337    
     68600  -19249.024      134.0184      -19115.005      186.5511       174.58092      195.39612    
     68700  -19232.823      132.84219     -19099.981      186.52955      174.55623      195.46886    
     68800  -19216.14       131.45248     -19084.687      186.50482      174.52678      195.54161    
     68900  -19201.928      131.43913     -19070.489      186.48223      174.49841      195.61436    
     69000  -19186.861      130.95509     -19055.906      186.46129      174.47227      195.6871     
     69100  -19173.742      132.88952     -19040.853      186.43674      174.44335      195.75985    
     69200  -19157.696      131.48962     -19026.207      186.41299      174.41414      195.83259    
     69300  -19142.864      131.77171     -19011.092      186.39306      174.38778      195.90534    
     69400  -19126.716      130.90418     -18995.812      186.36846      174.35771      195.97809    
     69500  -19111.738      131.20039     -18980.538      186.34436      174.32831      196.05083    
     69600  -19097.426      132.12539     -18965.3        186.32414      174.30208      196.12358    
     69700  -19080.266      130.82742     -18949.439      186.29873      174.27037      196.19632    
     69800  -19066.708      133.44992     -18933.258      186.27638      174.24148      196.26907    
     69900  -19050.99       133.17437     -18917.815      186.25462      174.2148       196.34182    
     70000  -19033.605      131.09587     -18902.51       186.22963      174.18441      196.41456    
     70100  -19020.424      132.60873     -18887.815      186.20721      174.15576      196.48731    
     70200  -19006.126      133.31334     -18872.813      186.18586      174.12916      196.56006    
     70300  -18987.524      129.9429      -18857.581      186.15895      174.09803      196.6328     
     70400  -18975.714      135.07826     -18840.636      186.13572      174.06986      196.70555    
     70500  -18954.872      131.55692     -18823.315      186.11455      174.04306      196.77829    
     70600  -18940.716      134.02731     -18806.689      186.08693      174.01163      196.85104    
     70700  -18922.199      132.14497     -18790.054      186.06377      173.98449      196.92379    
     70800  -18910.647      135.0248      -18775.622      186.04036      173.95736      196.99653    
     70900  -18891.891      132.10018     -18759.791      186.01397      173.92695      197.06928    
     71000  -18878.715      133.97977     -18744.735      185.99027      173.90014      197.14202    
     71100  -18861.267      133.20556     -18728.062      185.96614      173.87351      197.21477    
     71200  -18846.878      134.63035     -18712.247      185.93756      173.84291      197.28752    
     71300  -18829.091      132.75974     -18696.331      185.91393      173.81701      197.36026    
     71400  -18810.735      132.34323     -18678.391      185.88962      173.79094      197.43301    
     71500  -18795.359      133.17438     -18662.185      185.85978      173.76005      197.50576    
     71600  -18779.381      134.26988     -18645.111      185.83568      173.73494      197.5785     
     71700  -18761.824      133.9009      -18627.924      185.81103      173.71001      197.65125    
     71800  -18744.367      134.19885     -18610.168      185.78089      173.67973      197.72399    
     71900  -18729.825      136.88422     -18592.941      185.75551      173.65436      197.79674    
     72000  -18710.291      134.11233     -18576.178      185.7298       173.62924      197.86949    
     72100  -18695.329      134.78137     -18560.548      185.69865      173.59966      197.94223    
     72200  -18679.223      135.86869     -18543.354      185.67357      173.57511      198.01498    
     72300  -18660.593      134.86155     -18525.731      185.64711      173.55002      198.08772    
     72400  -18643.407      135.66154     -18507.746      185.61504      173.52029      198.16047    
     72500  -18624.139      133.45078     -18490.688      185.58887      173.49667      198.23322    
     72600  -18608.511      135.78078     -18472.73       185.56201      173.47129      198.30596    
[...]
     81600  -24071.913      122.77371     -23949.139      184.99371      171.98309      204.85311    
     81700  -24068.976      116.93664     -23952.039      185.03985      171.98659      204.92586    
     81800  -24061.62       128.87728     -23932.743      185.08814      171.98564      204.99861    
     81900  -24049.324      138.64533     -23910.679      185.13945      171.98233      205.07135    
     82000  -24029.386      127.79687     -23901.589      185.19462      171.97197      205.1441     
     82100  -24021.726      128.62782     -23893.098      185.25338      171.96367      205.21685    
     82200  -24015.462      134.47027     -23880.992      185.31001      171.95613      205.28959    
     82300  -24009.083      131.3152      -23877.768      185.36347      171.95352      205.36234    
     82400  -24013.345      131.4461      -23881.899      185.41463      171.95001      205.43508    
     82500  -24020.278      130.29877     -23889.979      185.45441      171.94697      205.50783    
     82600  -24029.491      130.5434      -23898.948      185.48329      171.95143      205.58058    
     82700  -24043.147      133.53913     -23909.608      185.5131       171.96604      205.65332    
     82800  -24057.083      131.27925     -23925.804      185.53326      171.98504      205.72607    
     82900  -24074.63       129.99031     -23944.639      185.56292      172.01298      205.79881    
     83000  -24080.629      122.2826      -23958.347      185.58976      172.04181      205.87156    
     83100  -24081.256      123.66972     -23957.586      185.61872      172.07015      205.94431    
     83200  -24077.768      131.26536     -23946.503      185.6501       172.09286      206.01705    
     83300  -24070.628      135.45605     -23935.172      185.67782      172.10707      206.0898     
     83400  -24072.319      138.76676     -23933.552      185.70363      172.11346      206.16255    
     83500  -24073.516      129.67703     -23943.839      185.73819      172.11672      206.23529    
     83600  -24081.16       127.51016     -23953.65       185.77056      172.11179      206.30804    
     83700  -24087.691      129.21883     -23958.472      185.81637      172.11133      206.38078    
     83800  -24088.563      129.98        -23958.583      185.86325      172.10527      206.45353    
     83900  -24090.272      133.28846     -23956.984      185.90846      172.09542      206.52628    
     84000  -24087.357      130.52937     -23956.828      185.96547      172.09933      206.59902    
     84100  -24084.617      128.0813      -23956.536      186.01338      172.10216      206.67177    
     84200  -24085.712      130.17009     -23955.542      186.05221      172.10875      206.74451    
     84300  -24084.77       130.99265     -23953.777      186.09681      172.12612      206.81726    
     84400  -24080.159      129.50635     -23950.653      186.13668      172.14596      206.89001    
     84500  -24078.045      130.71239     -23947.333      186.17136      172.16407      206.96275    
     84600  -24073.663      130.04693     -23943.616      186.20677      172.19043      207.0355     
     84700  -24073.495      133.07301     -23940.422      186.234        172.21251      207.10824    
     84800  -24073.173      133.90735     -23939.266      186.26082      172.23929      207.18099    
     84900  -24074.7        131.44949     -23943.251      186.27417      172.26351      207.25374    
     85000  -24076.021      128.97912     -23947.041      186.28918      172.29222      207.32648    
     85100  -24080.787      130.17305     -23950.614      186.30497      172.32696      207.39923    
     85200  -24078.248      126.05121     -23952.197      186.3138       172.35746      207.47198    
     85300  -24079.731      131.30741     -23948.424      186.32368      172.38386      207.54472    
     85400  -24079.319      132.41766     -23946.901      186.33409      172.41157      207.61747    
     85500  -24083.52       130.48084     -23953.039      186.34407      172.43659      207.69021    
     85600  -24091.329      129.21961     -23962.11       186.35442      172.46461      207.76296    
     85700  -24096.126      127.83282     -23968.293      186.36343      172.48131      207.83571    
     85800  -24096.168      128.76447     -23967.403      186.38114      172.49705      207.90845    
     85900  -24094.682      132.49762     -23962.184      186.40268      172.50854      207.9812     
     86000  -24087.499      129.77371     -23957.725      186.41863      172.51225      208.05394    
     86100  -24086.976      131.92975     -23955.046      186.43964      172.52253      208.12669    
     86200  -24084.014      129.32096     -23954.693      186.46643      172.53147      208.19944    
     86300  -24083.632      129.5649      -23954.067      186.49298      172.53563      208.27218    
     86400  -24082.636      130.80899     -23951.827      186.52853      172.54797      208.34493    
     86500  -24080.394      130.73829     -23949.656      186.55864      172.55151      208.41768    
     86600  -24080.139      131.06616     -23949.073      186.59208      172.56128      208.49042    
     86700  -24081.424      132.18737     -23949.237      186.62555      172.57037      208.56317    
     86800  -24083.532      133.73592     -23949.796      186.65086      172.57142      208.63591    
     86900  -24082.498      130.17568     -23952.323      186.68002      172.57413      208.70866    
     87000  -24081.502      128.23288     -23953.27       186.69514      172.56793      208.78141    
     87100  -24084.59       131.4035      -23953.186      186.72996      172.56383      208.85415    
     87200  -24089.281      134.18541     -23955.095      186.76562      172.55179      208.9269     
     87300  -24087.017      127.0759      -23959.941      186.80115      172.52769      208.99964    
     87400  -24091.323      128.09902     -23963.224      186.84524      172.50341      209.07239    
     87500  -24088.582      127.44989     -23961.132      186.8806       172.47314      209.14514    
     87600  -24084.516      130.52282     -23953.993      186.91858      172.44205      209.21788    
     87700  -24082.708      133.99698     -23948.711      186.96183      172.41016      209.29063    
     87800  -24083.292      132.3657      -23950.926      186.99937      172.38292      209.36338    
     87900  -24088.394      130.60891     -23957.785      187.03726      172.36304      209.43612    
     88000  -24091.539      128.2373      -23963.302      187.06981      172.34185      209.50887    
     88100  -24091.878      127.17088     -23964.707      187.09464      172.32647      209.58161    
     88200  -24091.752      130.16756     -23961.584      187.12095      172.31773      209.65436    
     88300  -24093.643      133.31344     -23960.33       187.14615      172.31199      209.72711    
     88400  -24090.619      129.02709     -23961.592      187.1593       172.29408      209.79985    
     88500  -24090.157      127.98175     -23962.175      187.17548      172.27474      209.8726     
     88600  -24089.635      128.94776     -23960.687      187.19223      172.26188      209.94534    
     88700  -24088.093      129.28842     -23958.805      187.19817      172.24834      210.01809    
     88800  -24088.989      130.94962     -23958.039      187.20226      172.23383      210.09084    
     88900  -24089.653      129.82191     -23959.831      187.20206      172.22288      210.16358    
     89000  -24088.231      126.44155     -23961.79       187.18709      172.20997      210.23633    
     89100  -24094.037      131.21217     -23962.825      187.18323      172.21         210.30907    
     89200  -24097.415      130.90106     -23966.513      187.17495      172.2063       210.38182    
     89300  -24096.259      126.08423     -23970.174      187.16258      172.2074       210.45457    
     89400  -24098.536      127.93512     -23970.601      187.15009      172.21687      210.52731    
     89500  -24096.708      129.54365     -23967.165      187.14061      172.22644      210.60006    
     89600  -24094.674      131.18787     -23963.486      187.13444      172.23327      210.67281    
     89700  -24099.097      134.11807     -23964.979      187.13431      172.23895      210.74555    
     89800  -24102.34       129.79382     -23972.547      187.13299      172.24312      210.8183     
     89900  -24102.823      124.37455     -23978.448      187.12807      172.24705      210.89104    
     90000  -24102.733      126.46708     -23976.266      187.12326      172.24956      210.96379    
     90100  -24095.476      129.16765     -23966.308      187.1132       172.2505       211.03654    
     90200  -24092.085      136.01647     -23956.068      187.10965      172.25832      211.10928    
     90300  -24092.013      136.03341     -23955.979      187.09843      172.26062      211.18203    
     90400  -24096.846      130.63021     -23966.216      187.08567      172.25856      211.25477    
     90500  -24101.98       126.1846      -23975.796      187.07413      172.25865      211.32752    
     90600  -24101.578      123.67869     -23977.899      187.0664       172.26144      211.40027    
     90700  -24098.868      129.01434     -23969.853      187.06383      172.25799      211.47301    
     90800  -24093.379      134.10205     -23959.277      187.0645       172.25531      211.54576    
     90900  -24091.348      134.88942     -23956.459      187.06358      172.24594      211.61851    
     91000  -24093.742      129.10989     -23964.632      187.0652       172.23202      211.69125    
     91100  -24099.386      124.83959     -23974.546      187.07781      172.22484      211.764      
     91200  -24102.205      125.54705     -23976.658      187.0874       172.21593      211.83674    
     91300  -24094.591      126.16254     -23968.428      187.10131      172.20735      211.90949    
     91400  -24091.447      134.05611     -23957.391      187.11797      172.19861      211.98224    
     91500  -24089.275      135.88114     -23953.394      187.12859      172.18173      212.05498    
     91600  -24094.714      134.53359     -23960.18       187.143        172.16937      212.12773    
     91700  -24098.095      128.15675     -23969.938      187.16364      172.15483      212.20047    
     91800  -24097.266      123.36308     -23973.903      187.17887      172.13199      212.27322    
     91900  -24098.165      129.60186     -23968.563      187.19789      172.10727      212.34597    
     92000  -24092.725      132.63111     -23960.094      187.22862      172.08653      212.41871    
     92100  -24095.704      136.78495     -23958.919      187.2566       172.05968      212.49146    
     92200  -24099.446      131.84235     -23967.603      187.28728      172.03069      212.56421    
     92300  -24106.34       126.46561     -23979.874      187.31802      172.00069      212.63695    
     92400  -24106.671      122.51513     -23984.156      187.34702      171.96786      212.7097     
     92500  -24105.192      128.93302     -23976.259      187.37359      171.93618      212.78244    
     92600  -24097.392      133.79785     -23963.594      187.39462      171.90707      212.85519    
     92700  -24092.859      135.40683     -23957.452      187.41112      171.88279      212.92794    
     92800  -24093.923      131.83529     -23962.088      187.43274      171.86833      213.00068    
     92900  -24099.703      128.3116      -23971.392      187.44819      171.85341      213.07343    
     93000  -24102.765      124.9092      -23977.856      187.45846      171.84082      213.14617    
     93100  -24099.984      126.59167     -23973.392      187.46777      171.83222      213.21892    
     93200  -24094.685      133.07489     -23961.61       187.4687       171.82252      213.29167    
     93300  -24087.055      134.47122     -23952.584      187.47365      171.82235      213.36441    
     93400  -24090.815      135.06434     -23955.75       187.4736       171.82703      213.43716    
     93500  -24097.927      130.01866     -23967.909      187.46528      171.8276       213.5099     
     93600  -24102.388      125.38414     -23977.004      187.45849      171.83589      213.58265    
     93700  -24105.317      127.86107     -23977.456      187.44849      171.84964      213.6554     
     93800  -24101.098      130.80143     -23970.297      187.43288      171.86658      213.72814    
     93900  -24098.215      134.37732     -23963.838      187.4166       171.88366      213.80089    
     94000  -24100.664      135.34737     -23965.316      187.39615      171.89719      213.87364    
     94100  -24103.377      129.21625     -23974.161      187.37773      171.91325      213.94638    
     94200  -24108.825      127.24291     -23981.582      187.36626      171.9304       214.01913    
     94300  -24105.04       124.37287     -23980.668      187.34994      171.93908      214.09187    
     94400  -24104.48       131.35973     -23973.12       187.33954      171.94924      214.16462    
     94500  -24101.013      135.36006     -23965.653      187.32967      171.95944      214.23737    
     94600  -24098.743      133.44483     -23965.298      187.32109      171.96739      214.31011    
     94700  -24099.292      128.57346     -23970.719      187.30734      171.97595      214.38286    
     94800  -24101.967      126.61808     -23975.349      187.2969       171.98169      214.4556     
     94900  -24103.215      128.11265     -23975.102      187.28806      171.98741      214.52835    
     95000  -24101.934      132.10827     -23969.826      187.27657      171.99172      214.6011     
     95100  -24096.595      131.93481     -23964.66       187.27375      172.00389      214.67384    
     95200  -24098.373      133.95778     -23964.415      187.26173      172.00599      214.74659    
     95300  -24100.985      130.91666     -23970.068      187.25785      172.01111      214.81934    
     95400  -24104.456      128.34251     -23976.114      187.2565       172.01796      214.89208    
     95500  -24104.176      126.74105     -23977.435      187.25595      172.01852      214.96483    
     95600  -24103.031      129.77396     -23973.257      187.26125      172.01914      215.03757    
     95700  -24101.949      134.09928     -23967.85       187.2677       172.01929      215.11032    
     95800  -24099.045      133.02679     -23966.018      187.27318      172.01207      215.18307    
     95900  -24100.23       131.2269      -23969.003      187.28816      172.0081       215.25581    
     96000  -24102.173      128.58757     -23973.586      187.30897      172.00029      215.32856    
     96100  -24104.324      129.06275     -23975.262      187.32693      171.98302      215.4013     
     96200  -24103.945      131.10976     -23972.836      187.35332      171.97516      215.47405    
     96300  -24099.08       131.11259     -23967.967      187.37077      171.9556       215.5468     
     96400  -24099.562      134.48575     -23965.076      187.39824      171.93825      215.61954    
     96500  -24097.857      130.81013     -23967.047      187.4211       171.91707      215.69229    
     96600  -24100.891      129.65626     -23971.234      187.4363       171.88819      215.76503    
     96700  -24100.361      126.13395     -23974.227      187.46588      171.87222      215.83778    
     96800  -24104.035      130.70595     -23973.329      187.48894      171.84995      215.91053    
     96900  -24100.827      131.18794     -23969.639      187.50807      171.82688      215.98327    
     97000  -24099.395      132.19902     -23967.196      187.52976      171.80349      216.05602    
     97100  -24100.995      132.73161     -23968.263      187.54556      171.77793      216.12877    
     97200  -24100.309      129.11663     -23971.193      187.56275      171.75594      216.20151    
     97300  -24101.513      127.76834     -23973.745      187.58259      171.73904      216.27426    
     97400  -24101.875      128.44844     -23973.426      187.59005      171.71926      216.347      
     97500  -24097.809      127.04645     -23970.763      187.59429      171.70627      216.41975    
     97600  -24099.596      131.87974     -23967.717      187.59359      171.69873      216.4925     
     97700  -24095.229      129.3917      -23965.838      187.59057      171.69623      216.56524    
     97800  -24100.204      134.06674     -23966.137      187.58645      171.69893      216.63799    
     97900  -24099.865      130.77452     -23969.09       187.57786      171.70493      216.71073    
     98000  -24097.963      126.36285     -23971.601      187.55804      171.70599      216.78348    
     98100  -24100.569      130.07574     -23970.493      187.54015      171.70911      216.85623    
     98200  -24096.386      130.31503     -23966.071      187.51678      171.71204      216.92897    
     98300  -24094.888      132.09327     -23962.794      187.49226      171.71109      217.00172    
     98400  -24093.515      129.68455     -23963.83       187.46832      171.70898      217.07447    
     98500  -24096.673      129.00966     -23967.663      187.44522      171.70698      217.14721    
     98600  -24097.924      126.91431     -23971.01       187.42501      171.70274      217.21996    
     98700  -24101.253      129.29629     -23971.957      187.41051      171.70418      217.2927     
     98800  -24100.167      128.99564     -23971.171      187.38782      171.69923      217.36545    
     98900  -24100.347      131.55017     -23968.797      187.36802      171.69795      217.4382     
     99000  -24097.686      130.32671     -23967.359      187.34304      171.698        217.51094    
     99100  -24099.355      130.61647     -23968.738      187.31417      171.69621      217.58369    
     99200  -24099.61       127.79562     -23971.814      187.28413      171.69323      217.65643    
     99300  -24104.408      130.54104     -23973.867      187.25349      171.69243      217.72918    
     99400  -24103.412      129.18413     -23974.228      187.22244      171.68684      217.80193    
     99500  -24101.929      129.73635     -23972.193      187.19692      171.68215      217.87467    
     99600  -24101.271      131.90565     -23969.365      187.16947      171.6729       217.94742    
     99700  -24100.794      132.26175     -23968.533      187.13938      171.65338      218.02017    
     99800  -24097.845      128.1827      -23969.663      187.1235       171.63651      218.09291    
     99900  -24102.142      130.93441     -23971.208      187.10513      171.61029      218.16566    
    100000  -24097.963      127.10752     -23970.855      187.0902       171.57891      218.2384     
Loop time of 1534.19 on 12 procs for 100000 steps with 3360 atoms

Performance: 5.632 ns/day, 4.262 hours/ns, 65.181 timesteps/s, 219.008 katom-step/s
97.3% CPU use with 12 MPI tasks x 1 OpenMP threads

MPI task timing breakdown:
Section |  min time  |  avg time  |  max time  |%varavg| %total
---------------------------------------------------------------
Pair    | 0.19708    | 457.16     | 1489.3     |3029.8 | 29.80
Neigh   | 0.0024609  | 0.94428    | 3.4901     | 139.2 |  0.06
Comm    | 0.12783    | 44.822     | 213.39     |1166.6 |  2.92
Output  | 0.40602    | 0.42636    | 0.44943    |   1.9 |  0.03
Modify  | 24.315     | 1028.3     | 1530.2     |2213.1 | 67.03
Other   |            | 2.507      |            |       |  0.16

Nlocal:            280 ave        1033 max           0 min
Histogram: 8 0 0 0 0 0 2 0 0 2
Nghost:        384.417 ave        1359 max           0 min
Histogram: 8 0 0 0 0 0 1 1 0 2
Neighs:              0 ave           0 max           0 min
Histogram: 12 0 0 0 0 0 0 0 0 0

Total # of neighbors = 0
Ave neighs/atom = 0
Neighbor list builds = 363
Dangerous builds = 0
Total wall time: 0:25:34
