LAMMPS (2 Aug 2023 - Update 3)
OMP_NUM_THREADS environment is not set. Defaulting to 1 thread. (src/comm.cpp:98)
  using 1 OpenMP thread(s) per MPI task
Reading data file ...
  orthogonal box = (-100 -100 -2.3312511) to (100 100 38.891558)
  4 by 4 by 1 MPI processor grid
  reading atoms ...
  784 atoms
  read_data CPU = 0.936 seconds
240 atoms in group SR
Deleted 240 atoms, new total = 544
Replication is creating a 1x1x15 = 15 times larger system...
  orthogonal box = (-100 -100 -2.3312511) to (100 100 616.01089)
  2 by 2 by 4 MPI processor grid
  8160 atoms
  replicate CPU = 1.008 seconds
System init for write_data ...
WARNING: Communication cutoff is 0.0. No ghost atoms will be generated. Atoms may get lost. (src/comm_brick.cpp:210)
Reading airebo potential file CH.airebo with DATE: 2011-10-25
Reading airebo potential file CH.airebo with DATE: 2011-10-25
Neighbor list info ...
  update: every = 1 steps, delay = 0 steps, check = yes
  max neighbors/atom: 2000, page size: 100000
  master list distance cutoff = 13.2
  ghost atom cutoff = 13.2
  binsize = 6.6, bins = 31 31 94
  5 neighbor lists, perpetual/occasional/extra = 5 0 0
  (1) pair airebo, perpetual, skip from (4)
      attributes: full, newton on, ghost
      pair build: skip/ghost
      stencil: none
      bin: none
  (2) pair airebo, perpetual, skip from (4)
      attributes: full, newton on, ghost
      pair build: skip/ghost
      stencil: none
      bin: none
  (3) pair lj/cut, perpetual, skip from (5)
      attributes: half, newton on, cut 13
      pair build: skip
      stencil: none
      bin: none
  (4) neighbor class addition, perpetual
      attributes: full, newton on, ghost
      pair build: full/bin/ghost
      stencil: full/ghost/bin/3d
      bin: standard
  (5) neighbor class addition, perpetual
      attributes: half, newton on, cut 13
      pair build: half/bin/atomonly/newton
      stencil: half/bin/3d
      bin: standard
Setting up sd style minimization ...
  Unit style    : metal
  Current step  : 0
Per MPI rank memory allocation (min/avg/max) = 9.418 | 9.992 | 10.18 Mbytes
   Step          Temp          E_pair         E_mol          TotEng         Press     
         0   0             -60259.281      0             -60259.281      30.842369    
         1   0             -60259.944      0             -60259.944      30.157447    
Loop time of 1.021 on 16 procs for 1 steps with 8160 atoms

43.6% CPU use with 16 MPI tasks x 1 OpenMP threads

Minimization stats:
  Stopping criterion = energy tolerance
  Energy initial, next-to-last, final = 
     -60259.2806513224  -60259.2806513224  -60259.9435884494
  Force two-norm initial, final = 13.472257 2.8894061
  Force max component initial, final = 0.14888908 0.031904291
  Final line search alpha, max atom move = 0.67164094 0.021428228
  Iterations, force evaluations = 1 2

MPI task timing breakdown:
Section |  min time  |  avg time  |  max time  |%varavg| %total
---------------------------------------------------------------
Pair    | 0.018177   | 0.023563   | 0.051137   |   5.8 |  2.31
Neigh   | 0          | 0          | 0          |   0.0 |  0.00
Comm    | 0.19783    | 0.25498    | 0.2995     |   5.3 | 24.97
Output  | 0          | 0          | 0          |   0.0 |  0.00
Modify  | 0          | 0          | 0          |   0.0 |  0.00
Other   |            | 0.7425     |            |       | 72.72

Nlocal:            510 ave         576 max         444 min
Histogram: 4 0 0 0 4 4 0 0 0 4
Nghost:           1874 ave        1940 max        1808 min
Histogram: 4 0 0 0 4 4 0 0 0 4
Neighs:              0 ave           0 max           0 min
Histogram: 16 0 0 0 0 0 0 0 0 0

Total # of neighbors = 0
Ave neighs/atom = 0
Neighbor list builds = 0
Dangerous builds = 0
Setting up Verlet run ...
  Unit style    : metal
  Current step  : 1
  Time step     : 0.001
Per MPI rank memory allocation (min/avg/max) = 10.81 | 10.81 | 10.81 Mbytes
   Step          Temp          E_pair         E_mol          TotEng         Press          Volume    
         1   300           -60259.944      0             -59943.554      43.820668      24733686     
Loop time of 0.0412399 on 16 procs for 0 steps with 8160 atoms

40.3% CPU use with 16 MPI tasks x 1 OpenMP threads

MPI task timing breakdown:
Section |  min time  |  avg time  |  max time  |%varavg| %total
---------------------------------------------------------------
Pair    | 0          | 0          | 0          |   0.0 |  0.00
Neigh   | 0          | 0          | 0          |   0.0 |  0.00
Comm    | 0          | 0          | 0          |   0.0 |  0.00
Output  | 0          | 0          | 0          |   0.0 |  0.00
Modify  | 0          | 0          | 0          |   0.0 |  0.00
Other   |            | 0.04124    |            |       |100.00

Nlocal:            510 ave         512 max         508 min
Histogram: 8 0 0 0 0 0 0 0 0 8
Nghost:           1874 ave        1876 max        1872 min
Histogram: 8 0 0 0 0 0 0 0 0 8
Neighs:              0 ave           0 max           0 min
Histogram: 16 0 0 0 0 0 0 0 0 0

Total # of neighbors = 0
Ave neighs/atom = 0
Neighbor list builds = 0
Dangerous builds = 0
WARNING: New thermo_style command, previous thermo_modify settings will be lost (src/output.cpp:903)
WARNING: Dump 2 includes no atom IDs and is not sorted by ID. This may complicate post-processing tasks or visualization (src/dump.cpp:221)
Setting up Verlet run ...
  Unit style    : metal
  Current step  : 0
  Time step     : 0.001
Per MPI rank memory allocation (min/avg/max) = 12.31 | 12.31 | 12.31 Mbytes
   Step         PotEng         KinEng         TotEng           Lx             Ly             Lz      
         0  -60259.944      316.39006     -59943.554      200            200            618.34214    
       100  -60081.078      161.31759     -59919.76       200.00572      200.00731      618.65131    
       200  -60077.376      190.77571     -59886.601      200.00277      200.00658      618.96048    
       300  -60053.781      206.91277     -59846.869      199.99774      200.00278      619.26965    
       400  -60034.268      230.81697     -59803.451      200.00487      200.01099      619.57882    
       500  -60011.813      254.093       -59757.72       199.99837      200.00478      619.88799    
       600  -59996.565      284.63117     -59711.934      199.99913      200.00449      620.19716    
       700  -59962.658      293.25347     -59669.404      200.00495      200.00904      620.50634    
       800  -59951.733      318.16397     -59633.569      199.99742      199.99956      620.81551    
       900  -59937.333      326.76492     -59610.568      200.00343      200.00299      621.12468    
      1000  -59931.365      323.26963     -59608.096      200.00345      200.00132      621.43385    
      1100  -59940.617      318.48385     -59622.133      199.99844      199.99454      621.74302    
      1200  -59945.949      309.62343     -59636.326      200.00399      199.99859      622.05219    
      1300  -59945.991      307.18172     -59638.81       199.99896      199.9938       622.36136    
      1400  -59943.247      316.77542     -59626.472      199.99726      199.99239      622.67053    
      1500  -59932.599      320.6991      -59611.9        199.99791      199.99486      622.9797     
      1600  -59928.237      321.77978     -59606.457      199.99059      199.99087      623.28888    
      1700  -59932.778      320.64812     -59612.129      199.98964      199.99336      623.59805    
      1800  -59938.072      316.12824     -59621.944      199.9846       199.99199      623.90722    
      1900  -59938.401      313.81156     -59624.59       199.97941      199.99059      624.21639    
      2000  -59929.08       312.61494     -59616.465      199.97751      199.99128      624.52556    
      2100  -59921.972      317.99813     -59603.974      199.97206      199.9872       624.83473    
      2200  -59918.117      321.7631      -59596.354      199.97061      199.98608      625.1439     
      2300  -59918.469      319.39684     -59599.072      199.96687      199.98085      625.45307    
      2400  -59920.134      313.32186     -59606.812      199.96524      199.9766       625.76224    
      2500  -59921.84       311.7039      -59610.136      199.96404      199.97203      626.07142    
      2600  -59918.011      313.81035     -59604.201      199.95972      199.96421      626.38059    
      2700  -59907.684      315.3617      -59592.322      199.96028      199.96124      626.68976    
      2800  -59903.833      320.83065     -59583.002      199.95499      199.95404      626.99893    
      2900  -59899.845      318.08007     -59581.765      199.95097      199.94935      627.3081     
      3000  -59903.799      316.37157     -59587.427      199.94801      199.94659      627.61727    
      3100  -59905.805      314.17841     -59591.627      199.93919      199.93996      627.92644    
      3200  -59899.786      311.57835     -59588.208      199.93508      199.93907      628.23561    
      3300  -59894.461      316.65932     -59577.801      199.92694      199.93457      628.54478    
      3400  -59888.691      321.68863     -59567.003      199.91847      199.93049      628.85395    
      3500  -59880.785      318.27123     -59562.513      199.91317      199.9293       629.16313    
      3600  -59880.35       314.54464     -59565.805      199.90314      199.92189      629.4723     
      3700  -59886.28       316.68267     -59569.598      199.89827      199.91935      629.78147    
      3800  -59880.022      312.10393     -59567.918      199.891        199.91274      630.09064    
      3900  -59873.897      315.00962     -59558.887      199.88425      199.90507      630.39981    
      4000  -59864.566      317.41135     -59547.155      199.8809       199.8995       630.70898    
      4100  -59864.348      324.46418     -59539.883      199.8729       199.88892      631.01815    
      4200  -59861.482      320.68179     -59540.8        199.86941      199.88238      631.32732    
      4300  -59860.121      315.79608     -59544.325      199.86294      199.87305      631.63649    
      4400  -59857.897      314.56836     -59543.328      199.85521      199.8637       631.94567    
      4500  -59850.206      314.29737     -59535.909      199.8505       199.85778      632.25484    
      4600  -59844.371      319.78211     -59524.589      199.84006      199.84723      632.56401    
      4700  -59836.477      320.84417     -59515.633      199.83297      199.84136      632.87318    
      4800  -59836.145      322.89665     -59513.249      199.82363      199.83379      633.18235    
      4900  -59830.709      316.13185     -59514.577      199.81206      199.82506      633.49152    
      5000  -59829.446      314.87518     -59514.571      199.80316      199.82002      633.80069    
      5100  -59822.6        314.24388     -59508.357      199.79014      199.81054      634.10986    
      5200  -59817.349      320.01226     -59497.336      199.77995      199.80335      634.41903    
      5300  -59805.647      318.25698     -59487.39       199.76883      199.79483      634.7282     
      5400  -59799.287      316.47372     -59482.813      199.75672      199.78363      635.03738    
      5500  -59798.771      315.54543     -59483.226      199.74794      199.77435      635.34655    
      5600  -59795.072      311.89832     -59483.174      199.73606      199.76087      635.65572    
      5700  -59791.669      313.17083     -59478.498      199.72701      199.74915      635.96489    
      5800  -59781.22       312.68226     -59468.538      199.7166       199.73564      636.27406    
      5900  -59777.181      319.56435     -59457.617      199.70533      199.72122      636.58323    
      6000  -59771.229      319.99538     -59451.233      199.69598      199.70903      636.8924     
      6100  -59768.007      317.81806     -59450.189      199.68238      199.69374      637.20157    
      6200  -59764.15       314.44281     -59449.707      199.67097      199.68142      637.51074    
      6300  -59756.604      311.54185     -59445.062      199.65761      199.66816      637.81992    
      6400  -59756.309      320.29769     -59436.011      199.6428       199.65443      638.12909    
      6500  -59742.548      317.00945     -59425.538      199.62927      199.64278      638.43826    
      6600  -59736.665      319.5771      -59417.087      199.61306      199.62886      638.74743    
      6700  -59728.708      315.15036     -59413.557      199.59817      199.61673      639.0566     
      6800  -59726.349      314.09744     -59412.252      199.58183      199.60244      639.36577    
      6900  -59720.293      311.75028     -59408.542      199.56618      199.58812      639.67494    
      7000  -59716.434      317.28155     -59399.152      199.55181      199.57351      639.98411    
      7100  -59706.01       319.13894     -59386.871      199.53518      199.55565      640.29328    
      7200  -59697.246      320.14666     -59377.099      199.52248      199.54027      640.60246    
      7300  -59690.677      318.26916     -59372.408      199.50592      199.52022      640.91163    
      7400  -59691.075      320.77564     -59370.299      199.49145      199.50199      641.2208     
      7500  -59678.524      311.86546     -59366.659      199.47667      199.48314      641.52997    
      7600  -59675.872      317.2402      -59358.632      199.45847      199.46153      641.83914    
      7700  -59662.312      315.04486     -59347.267      199.4434       199.44396      642.14831    
      7800  -59653.866      317.68731     -59336.179      199.42404      199.42262      642.45748    
      7900  -59645.178      315.68203     -59329.496      199.40453      199.40265      642.76665    
      8000  -59640.851      314.69425     -59326.157      199.38597      199.38464      643.07582    
      8100  -59637.385      313.95082     -59323.435      199.36233      199.36198      643.38499    
      8200  -59630.127      313.05267     -59317.074      199.34284      199.34385      643.69417    
      8300  -59618.823      312.91321     -59305.91       199.31932      199.32206      644.00334    
      8400  -59612.336      318.71305     -59293.623      199.29638      199.30001      644.31251    
      8500  -59602.734      317.67554     -59285.058      199.27572      199.27926      644.62168    
      8600  -59601.77       320.85977     -59280.91       199.25089      199.25337      644.93085    
      8700  -59591.255      313.09144     -59278.163      199.23033      199.23088      645.24002    
      8800  -59585.465      313.1863      -59272.279      199.20755      199.20512      645.54919    
      8900  -59581          318.54733     -59262.452      199.18405      199.17801      645.85836    
      9000  -59563.892      314.17704     -59249.715      199.16357      199.15359      646.16753    
      9100  -59555.781      317.85736     -59237.924      199.13843      199.12448      646.47671    
      9200  -59551.781      320.49827     -59231.283      199.11582      199.09877      646.78588    
      9300  -59542.281      314.1         -59228.181      199.09132      199.07163      647.09505    
      9400  -59540.368      317.28229     -59223.085      199.06439      199.04344      647.40422    
      9500  -59529.617      316.74923     -59212.868      199.03957      199.0185       647.71339    
      9600  -59514.417      315.02373     -59199.393      199.01072      198.99059      648.02256    
      9700  -59504.921      317.20443     -59187.717      198.98276      198.96421      648.33173    
      9800  -59498.849      319.05734     -59179.792      198.95437      198.93785      648.6409     
      9900  -59491.668      313.3647      -59178.303      198.92419      198.90936      648.95007    
     10000  -59483.514      312.21659     -59171.298      198.89537      198.88187      649.25925    
     10100  -59472.026      313.24944     -59158.777      198.86516      198.85223      649.56842    
     10200  -59465.345      319.01211     -59146.332      198.8355       198.82235      649.87759    
     10300  -59450.913      314.80952     -59136.104      198.80567      198.7916       650.18676    
     10400  -59447.443      320.11112     -59127.332      198.77499      198.75924      650.49593    
     10500  -59432.938      313.87639     -59119.061      198.7453       198.72717      650.8051     
     10600  -59424.348      314.31221     -59110.035      198.7135       198.69303      651.11427    
     10700  -59416.002      315.67224     -59100.33       198.68266      198.65947      651.42344    
     10800  -59407.312      316.52588     -59090.786      198.65084      198.62497      651.73261    
     10900  -59399.85       317.59085     -59082.259      198.61703      198.58985      652.04178    
     11000  -59394.124      317.71882     -59076.405      198.58401      198.55615      652.35096    
     11100  -59380.174      310.78204     -59069.392      198.54862      198.52054      652.66013    
     11200  -59366.691      311.07871     -59055.612      198.51304      198.48627      652.9693     
     11300  -59355.831      316.42772     -59039.403      198.47663      198.45189      653.27847    
     11400  -59346.702      317.22079     -59029.481      198.43848      198.41605      653.58764    
     11500  -59339.609      316.3254      -59023.284      198.4016       198.38208      653.89681    
     11600  -59334.232      317.06939     -59017.162      198.36209      198.34523      654.20598    
     11700  -59321.8        313.55519     -59008.244      198.32423      198.30924      654.51515    
     11800  -59307.631      317.0919      -58990.539      198.28576      198.2721       654.82432    
     11900  -59295.285      319.39392     -58975.891      198.24602      198.23305      655.1335     
     12000  -59283.256      317.05066     -58966.206      198.20875      198.19526      655.44267    
     12100  -59276.808      316.53483     -58960.273      198.16845      198.15351      655.75184    
     12200  -59265.467      312.21389     -58953.253      198.13023      198.11351      656.06101    
     12300  -59254.497      311.98015     -58942.517      198.09079      198.07157      656.37018    
     12400  -59240.316      317.55014     -58922.766      198.0501       198.02817      656.67935    
     12500  -59230.244      319.48172     -58910.763      198.01119      197.98704      656.98852    
     12600  -59219.031      314.87099     -58904.16       197.96793      197.94236      657.29769    
     12700  -59212.996      315.54563     -58897.451      197.92698      197.90052      657.60686    
     12800  -59200.789      314.1402      -58886.648      197.88367      197.8575       657.91604    
     12900  -59189.355      317.91145     -58871.443      197.83876      197.81362      658.22521    
     13000  -59175.627      322.74886     -58852.878      197.79611      197.77285      658.53438    
     13100  -59161.189      316.7212      -58844.467      197.74901      197.72765      658.84355    
     13200  -59155.831      317.91943     -58837.912      197.70536      197.68626      659.15272    
     13300  -59146.847      316.8862      -58829.961      197.65938      197.64228      659.46189    
     13400  -59136.012      316.61659     -58819.395      197.61378      197.59761      659.77106    
     13500  -59118.324      311.58957     -58806.734      197.5707       197.55481      660.08023    
     13600  -59104.302      315.03014     -58789.272      197.52435      197.50779      660.3894     
     13700  -59094.421      319.98031     -58774.44       197.48215      197.46364      660.69857    
     13800  -59084.217      317.61516     -58766.602      197.43803      197.41682      661.00775    
     13900  -59074.206      314.03599     -58760.17       197.39409      197.36988      661.31692    
     14000  -59065.184      316.82614     -58748.358      197.35208      197.32444      661.62609    
     14100  -59053.251      319.19243     -58734.059      197.30731      197.27637      661.93526    
     14200  -59039.185      320.91599     -58718.269      197.26477      197.23098      662.24443    
     14300  -59019.546      319.5223      -58700.024      197.22045      197.18431      662.5536     
     14400  -59007.815      324.6475      -58683.167      197.17592      197.13803      662.86277    
     14500  -59002.585      323.3079      -58679.277      197.13171      197.09316      663.17194    
     14600  -58987.837      316.22312     -58671.614      197.08565      197.0475       663.48111    
     14700  -58976.638      315.89014     -58660.748      197.04106      197.00374      663.79029    
     14800  -58966.64       316.91154     -58649.728      196.99498      196.95888      664.09946    
     14900  -58951.123      314.19865     -58636.924      196.95009      196.9153       664.40863    
     15000  -58937.005      316.44723     -58620.558      196.90497      196.87119      664.7178     
     15100  -58923.826      320.25882     -58603.567      196.86028      196.82663      665.02697    
     15200  -58908.765      316.36685     -58592.398      196.8172       196.783        665.33614    
     15300  -58900.605      312.49923     -58588.106      196.77378      196.73765      665.64531    
     15400  -58886.744      310.77986     -58575.964      196.73274      196.69389      665.95448    
     15500  -58879.691      319.20093     -58560.49       196.69116      196.64897      666.26365    
     15600  -58863.028      319.28429     -58543.744      196.6512       196.60517      666.57283    
     15700  -58849.175      320.82131     -58528.353      196.61185      196.56198      666.882      
     15800  -58836.021      317.74003     -58518.281      196.57161      196.51838      667.19117    
     15900  -58820.863      309.1062      -58511.756      196.53381      196.47767      667.50034    
     16000  -58815.124      315.62581     -58499.498      196.49404      196.43568      667.80951    
     16100  -58795.381      313.60999     -58481.771      196.4557       196.39654      668.11868    
     16200  -58780.611      316.55909     -58464.052      196.41717      196.35827      668.42785    
     16300  -58765.874      315.12726     -58450.746      196.37796      196.32053      668.73702    
     16400  -58755.687      316.87875     -58438.808      196.34014      196.28481      669.04619    
     16500  -58742.174      315.81922     -58426.355      196.30151      196.24884      669.35536    
     16600  -58731.461      318.5885      -58412.872      196.26421      196.21404      669.66454    
     16700  -58717.31       319.59653     -58397.714      196.22778      196.17935      669.97371    
     16800  -58696.226      317.94179     -58378.284      196.1918       196.14438      670.28288    
     16900  -58682.147      318.32012     -58363.827      196.1576       196.11053      670.59205    
     17000  -58669.179      313.3558      -58355.823      196.12337      196.07545      670.90122    
     17100  -58662.357      316.20629     -58346.15       196.09153      196.04159      671.21039    
     17200  -58646.551      314.70665     -58331.844      196.05987      196.00756      671.51956    
     17300  -58632.12       316.93886     -58315.181      196.02887      195.97365      671.82873    
     17400  -58614.112      318.76747     -58295.345      196            195.9415       672.1379     
     17500  -58597.825      321.43176     -58276.394      195.96953      195.9087       672.44708    
     17600  -58588.333      320.72144     -58267.611      195.94071      195.87847      672.75625    
     17700  -58573.912      316.53369     -58257.378      195.9114       195.84864      673.06542    
     17800  -58559.617      314.77654     -58244.84       195.88144      195.81979      673.37459    
     17900  -58552.76       321.95156     -58230.809      195.85291      195.79357      673.68376    
     18000  -58530.252      316.66242     -58213.59       195.82272      195.76639      673.99293    
     18100  -58512.083      318.57587     -58193.507      195.79418      195.74137      674.3021     
     18200  -58498.355      321.0385      -58177.317      195.76529      195.71651      674.61127    
     18300  -58484.857      315.69495     -58169.162      195.73642      195.69141      674.92044    
     18400  -58473.917      314.79712     -58159.12       195.7096       195.66721      675.22962    
     18500  -58456.917      315.03598     -58141.881      195.68207      195.64176      675.53879    
     18600  -58435.604      313.472       -58122.132      195.65672      195.61743      675.84796    
     18700  -58422.068      316.72954     -58105.338      195.63132      195.59173      676.15713    
     18800  -58406.764      314.4034      -58092.36       195.6074       195.56621      676.4663     
     18900  -58401.899      315.88494     -58086.014      195.58446      195.5411       676.77547    
     19000  -58381.472      310.27228     -58071.2        195.56119      195.51484      677.08464    
     19100  -58368.667      317.10607     -58051.56       195.54038      195.49009      677.39381    
     19200  -58346.142      313.28041     -58032.861      195.51858      195.46481      677.70298    
     19300  -58333.154      316.116       -58017.038      195.49695      195.44056      678.01215    
     19400  -58316.995      314.33539     -58002.659      195.47638      195.41773      678.32133    
     19500  -58310.438      316.35969     -57994.079      195.45412      195.39439      678.6305     
     19600  -58293.615      312.33429     -57981.281      195.43296      195.37391      678.93967    
     19700  -58274.111      313.92317     -57960.188      195.41047      195.35304      679.24884    
     19800  -58258.395      317.78202     -57940.613      195.38845      195.33334      679.55801    
     19900  -58237.379      313.87659     -57923.502      195.36673      195.31475      679.86718    
     20000  -58225.715      318.37772     -57907.337      195.34402      195.29536      680.17635    
     20100  -58208.406      316.23179     -57892.174      195.32322      195.27731      680.48552    
     20200  -58196.109      317.50478     -57878.604      195.30186      195.25764      680.79469    
     20300  -58176.041      312.1873      -57863.854      195.28185      195.23838      681.10387    
     20400  -58160.514      316.13639     -57844.377      195.2624       195.21845      681.41304    
     20500  -58144.027      320.61487     -57823.412      195.24392      195.19768      681.72221    
     20600  -58121.271      313.98403     -57807.287      195.22614      195.17671      682.03138    
     20700  -58112.787      316.05087     -57796.736      195.20854      195.15533      682.34055    
     20800  -58097.338      311.51525     -57785.823      195.19142      195.13376      682.64972    
     20900  -58082.893      314.84205     -57768.051      195.17433      195.11232      682.95889    
     21000  -58065.763      317.68308     -57748.08       195.15749      195.09177      683.26806    
     21100  -58047.269      318.80454     -57728.464      195.13937      195.07089      683.57723    
     21200  -58031.269      320.06847     -57711.2        195.12232      195.05171      683.8864     
     21300  -58014.485      313.63134     -57700.853      195.1039       195.03265      684.19558    
     21400  -58000.768      311.3973      -57689.37       195.08523      195.01442      684.50475    
     21500  -57985.976      315.24741     -57670.729      195.0673       194.99754      684.81392    
     21600  -57966.03       317.23353     -57648.796      195.04794      194.98014      685.12309    
     21700  -57947.591      317.19155     -57630.4        195.02996      194.96458      685.43226    
     21800  -57930.477      315.7821      -57614.694      195.01121      194.94785      685.74143    
     21900  -57914.829      314.88167     -57599.948      194.99377      194.93193      686.0506     
     22000  -57900.321      315.59343     -57584.728      194.97658      194.91546      686.35977    
     22100  -57884.003      317.01652     -57566.986      194.9595       194.89846      686.66894    
     22200  -57864.242      318.99114     -57545.25       194.94422      194.88179      686.97812    
     22300  -57844.513      318.74531     -57525.768      194.92819      194.8636       687.28729    
     22400  -57828.624      317.84959     -57510.774      194.91368      194.84624      687.59646    
     22500  -57815.458      316.52532     -57498.933      194.89865      194.82795      687.90563    
     22600  -57800.749      316.36727     -57484.382      194.88419      194.81027      688.2148     
     22700  -57781.179      316.46059     -57464.718      194.86939      194.79273      688.52397    
     22800  -57760.701      321.27094     -57439.43       194.8543       194.77562      688.83314    
     22900  -57742.521      319.37461     -57423.146      194.83935      194.7596       689.14231    
     23000  -57731.348      321.2093      -57410.139      194.82293      194.74327      689.45148    
     23100  -57717.097      320.92945     -57396.167      194.80734      194.72913      689.76066    
     23200  -57695.252      315.54706     -57379.705      194.79037      194.7147       690.06983    
     23300  -57677.355      319.77486     -57357.58       194.77337      194.70116      690.379      
     23400  -57654.655      322.08317     -57332.572      194.75686      194.68854      690.68817    
     23500  -57637.472      320.02318     -57317.449      194.73935      194.67475      690.99734    
     23600  -57619.633      314.27498     -57305.358      194.72328      194.66203      691.30651    
     23700  -57605.681      316.03692     -57289.644      194.70657      194.64785      691.61568    
     23800  -57585.931      316.27221     -57269.659      194.69092      194.63349      691.92485    
     23900  -57562.402      318.48644     -57243.915      194.67564      194.61868      692.23402    
     24000  -57543.623      317.87067     -57225.752      194.65983      194.60271      692.54319    
     24100  -57524.024      311.90935     -57212.115      194.64577      194.58722      692.85237    
     24200  -57512.471      314.78956     -57197.682      194.63075      194.56982      693.16154    
     24300  -57493.667      313.10115     -57180.566      194.61634      194.55322      693.47071    
     24400  -57469.969      312.40746     -57157.562      194.60196      194.53643      693.77988    
     24500  -57453.176      319.3716      -57133.805      194.58636      194.51886      694.08905    
     24600  -57439.301      320.32591     -57118.976      194.57182      194.50298      694.39822    
     24700  -57421.282      315.21151     -57106.07       194.55493      194.48605      694.70739    
     24800  -57401.666      312.25119     -57089.415      194.53884      194.47068      695.01656    
     24900  -57386.575      316.4625      -57070.112      194.52208      194.45547      695.32573    
     25000  -57368.763      319.74089     -57049.022      194.50409      194.43995      695.63491    
     25100  -57344.826      321.39659     -57023.429      194.48753      194.42647      695.94408    
     25200  -57326.289      320.57887     -57005.71       194.46866      194.41065      696.25325    
     25300  -57311.526      318.69105     -56992.835      194.45177      194.3966       696.56242    
     25400  -57293.795      317.31222     -56976.483      194.43406      194.38114      696.87159    
     25500  -57274.238      315.54785     -56958.691      194.41653      194.36518      697.18076    
     25600  -57254.145      315.53608     -56938.608      194.4005       194.34965      697.48993    
     25700  -57229.069      315.31993     -56913.75       194.38304      194.33142      697.7991     
     25800  -57216.35       323.52911     -56892.821      194.36817      194.31496      698.10827    
     25900  -57197.508      319.14893     -56878.359      194.35115      194.29555      698.41745    
     26000  -57179.103      315.44188     -56863.661      194.33589      194.27715      698.72662    
     26100  -57159.898      314.99861     -56844.899      194.32011      194.25771      699.03579    
     26200  -57142.903      318.31866     -56824.584      194.30311      194.23724      699.34496    
     26300  -57116.168      314.51048     -56801.658      194.2877       194.21867      699.65413    
     26400  -57104.531      324.77863     -56779.753      194.26942      194.19764      699.9633     
     26500  -57086.387      319.31642     -56767.07       194.25288      194.17927      700.27247    
     26600  -57066.914      313.49791     -56753.416      194.2338       194.15946      700.58164    
     26700  -57048.827      315.00573     -56733.821      194.21542      194.14107      700.89081    
     26800  -57024.602      313.54095     -56711.061      194.19675      194.1229       701.19998    
     26900  -57002.25       314.89874     -56687.351      194.17641      194.10399      701.50916    
     27000  -56986.795      317.43476     -56669.36       194.15806      194.0875       701.81833    
     27100  -56974.746      314.80711     -56659.939      194.13714      194.06817      702.1275     
     27200  -56951.64       311.46543     -56640.175      194.1186       194.05101      702.43667    
     27300  -56930.471      314.65819     -56615.812      194.0989       194.03243      702.74584    
     27400  -56909.81       316.94528     -56592.865      194.07988      194.01344      703.05501    
     27500  -56891.431      318.97537     -56572.456      194.0623       193.99458      703.36418    
     27600  -56873.051      317.64639     -56555.405      194.0434       193.97363      703.67335    
     27700  -56855.284      311.57901     -56543.705      194.0263       193.9544       703.98252    
     27800  -56835.553      311.3452      -56524.208      194.00783      193.93324      704.2917     
     27900  -56808.252      309.13441     -56499.118      193.99032      193.91264      704.60087    
     28000  -56789.918      312.87877     -56477.039      193.9726       193.892        704.91004    
     28100  -56774.466      317.79554     -56456.67       193.95379      193.87118      705.21921    
     28200  -56749.545      311.75625     -56437.788      193.93569      193.85157      705.52838    
     28300  -56736.252      313.10512     -56423.147      193.91646      193.83126      705.83755    
     28400  -56719.702      311.87412     -56407.828      193.8977       193.81225      706.14672    
     28500  -56694.363      310.1211      -56384.242      193.87763      193.79341      706.45589    
     28600  -56676.469      317.07158     -56359.398      193.85765      193.77535      706.76506    
     28700  -56659.449      320.93124     -56338.518      193.83753      193.7575       707.07424    
     28800  -56635.14       317.23176     -56317.909      193.81644      193.7393       707.38341    
     28900  -56610.617      314.77746     -56295.839      193.79615      193.72245      707.69258    
     29000  -56590.946      319.22131     -56271.724      193.77444      193.70402      708.00175    
     29100  -56565.223      315.41569     -56249.808      193.75413      193.68627      708.31092    
     29200  -56548.502      313.21623     -56235.285      193.73314      193.66733      708.62009    
     29300  -56536.831      316.33219     -56220.498      193.7122       193.64783      708.92926    
     29400  -56512.536      313.32043     -56199.216      193.69252      193.62876      709.23843    
     29500  -56492.667      317.97423     -56174.693      193.67158      193.60695      709.5476     
     29600  -56466.835      314.20604     -56152.629      193.65273      193.58658      709.85677    
     29700  -56449.424      316.44937     -56132.975      193.63221      193.56425      710.16595    
     29800  -56428.642      314.36292     -56114.279      193.61239      193.54217      710.47512    
     29900  -56410.799      315.37802     -56095.421      193.59305      193.5203       710.78429    
     30000  -56391.314      315.35802     -56075.956      193.57187      193.497        711.09346    
     30100  -56367.827      312.65547     -56055.171      193.55241      193.47635      711.40263    
     30200  -56349.235      317.08113     -56032.154      193.52999      193.45381      711.7118     
     30300  -56330.202      321.23617     -56008.966      193.50902      193.43322      712.02097    
     30400  -56302.379      314.74853     -55987.63       193.48655      193.41214      712.33014    
     30500  -56284.637      313.57989     -55971.057      193.46329      193.39135      712.63931    
     30600  -56267.157      310.88967     -55956.267      193.44095      193.37196      712.94849    
     30700  -56250.494      316.1277      -55934.366      193.4165       193.35017      713.25766    
     30800  -56226.787      318.54674     -55908.24       193.39461      193.33067      713.56683    
     30900  -56201.548      315.44162     -55886.107      193.37025      193.30851      713.876      
     31000  -56180.222      315.4077      -55864.814      193.34743      193.28745      714.18517    
     31100  -56158.318      315.82659     -55842.491      193.32458      193.26509      714.49434    
     31200  -56137.599      319.85502     -55817.744      193.30121      193.24116      714.80351    
     31300  -56113.857      320.35442     -55793.502      193.27973      193.2182       715.11268    
     31400  -56092.984      316.25578     -55776.728      193.25589      193.19198      715.42185    
     31500  -56074.963      312.12601     -55762.837      193.23472      193.16792      715.73103    
     31600  -56058.01       316.06847     -55741.942      193.2113       193.14074      716.0402     
     31700  -56036.796      318.88789     -55717.908      193.18953      193.11488      716.34937    
     31800  -56011.737      318.30802     -55693.429      193.16711      193.08874      716.65854    
     31900  -55991.892      320.68685     -55671.205      193.1432       193.06154      716.96771    
     32000  -55971.206      315.94801     -55655.258      193.12134      193.03682      717.27688    
     32100  -55958.545      318.97544     -55639.57       193.09596      193.00962      717.58605    
     32200  -55930.416      311.80203     -55618.614      193.07287      192.98578      717.89522    
     32300  -55908.716      316.33521     -55592.38       193.04748      192.96062      718.20439    
     32400  -55883.777      316.38242     -55567.394      193.02201      192.93615      718.51356    
     32500  -55867.371      320.14749     -55547.224      192.99759      192.91286      718.82274    
     32600  -55842.984      315.62383     -55527.36       192.97075      192.88772      719.13191    
     32700  -55825.281      317.95894     -55507.322      192.9461       192.86506      719.44108    
     32800  -55802.637      316.1886      -55486.448      192.91953      192.84005      719.75025    
     32900  -55778.834      316.90872     -55461.925      192.89419      192.81582      720.05942    
     33000  -55752.704      315.89271     -55436.811      192.86901      192.79115      720.36859    
     33100  -55734.753      318.85598     -55415.897      192.84341      192.76523      720.67776    
     33200  -55714.547      314.11602     -55400.431      192.81954      192.74022      720.98693    
     33300  -55697.296      314.83871     -55382.458      192.79447      192.71316      721.2961     
     33400  -55676.847      317.19293     -55359.654      192.77158      192.68742      721.60528    
     33500  -55652.558      317.34675     -55335.211      192.74767      192.66029      721.91445    
     33600  -55631.041      318.61495     -55312.426      192.72437      192.63387      722.22362    
     33700  -55608.247      316.77765     -55291.469      192.70121      192.60813      722.53279    
     33800  -55588.208      318.12596     -55270.082      192.67666      192.58161      722.84196    
     33900  -55560.714      313.31286     -55247.401      192.65351      192.55741      723.15113    
     34000  -55540.877      321.25899     -55219.618      192.62789      192.53207      723.4603     
     34100  -55512.373      316.3146      -55196.059      192.60287      192.50869      723.76947    
     34200  -55497.936      318.69418     -55179.242      192.57675      192.48509      724.07864    
     34300  -55474.538      311.06975     -55163.468      192.5502       192.46138      724.38782    
     34400  -55454.655      314.08006     -55140.575      192.52414      192.43846      724.69699    
     34500  -55429.445      314.86763     -55114.578      192.49654      192.41446      725.00616    
     34600  -55404.059      314.44433     -55089.615      192.47027      192.39154      725.31533    
     34700  -55387.904      320.51671     -55067.387      192.4427       192.36665      725.6245     
     34800  -55363.982      316.05008     -55047.931      192.41671      192.34241      725.93367    
     34900  -55342.95       308.68232     -55034.268      192.3902       192.31693      726.24284    
     35000  -55323.504      311.66633     -55011.838      192.3642       192.29126      726.55201    
     35100  -55299.541      315.15867     -54984.382      192.33914      192.26543      726.86118    
     35200  -55272.961      313.20775     -54959.753      192.3132       192.23802      727.17035    
     35300  -55252.697      316.2984      -54936.399      192.2893       192.21211      727.47953    
     35400  -55231.057      317.14686     -54913.91       192.2633       192.18403      727.7887     
     35500  -55211.366      318.76645     -54892.599      192.23944      192.15801      728.09787    
     35600  -55190.974      318.22792     -54872.746      192.21387      192.13034      728.40704    
     35700  -55165.925      314.05899     -54851.866      192.18955      192.10377      728.71621    
     35800  -55142.768      315.59232     -54827.176      192.16446      192.0772       729.02538    
     35900  -55115.724      316.299       -54799.425      192.13842      192.05041      729.33455    
     36000  -55092.6        317.23758     -54775.363      192.11329      192.02538      729.64372    
     36100  -55072.224      316.95726     -54755.267      192.08566      191.99825      729.95289    
     36200  -55055.363      313.68132     -54741.682      192.05997      191.97343      730.26207    
     36300  -55034.085      313.76964     -54720.315      192.03193      191.94674      730.57124    
     36400  -55010.16       316.776       -54693.384      192.00472      191.9215       730.88041    
     36500  -54984.789      317.78787     -54667.001      191.97687      191.89523      731.18958    
     36600  -54960.248      318.07093     -54642.177      191.94882      191.86848      731.49875    
     36700  -54939.363      319.48718     -54619.876      191.92178      191.84228      731.80792    
     36800  -54916.242      313.47784     -54602.764      191.89328      191.81405      732.11709    
     36900  -54898.311      312.55563     -54585.756      191.8672       191.78745      732.42626    
     37000  -54875.47       314.47105     -54560.999      191.83956      191.75825      732.73543    
     37100  -54846.841      313.28345     -54533.557      191.81417      191.73052      733.0446     
     37200  -54827.714      317.6245      -54510.09       191.7881       191.7016       733.35378    
     37300  -54808.125      319.94304     -54488.182      191.7624       191.67263      733.66295    
     37400  -54780.926      314.72883     -54466.198      191.73775      191.6444       733.97212    
     37500  -54760.058      314.63384     -54445.424      191.71182      191.6153       734.28129    
     37600  -54735.945      312.56098     -54423.384      191.68728      191.58783      734.59046    
     37700  -54710.578      313.84478     -54396.733      191.66122      191.55921      734.89963    
     37800  -54690.942      321.47294     -54369.469      191.636        191.53218      735.2088     
     37900  -54665.863      319.12838     -54346.734      191.60934      191.50494      735.51797    
     38000  -54645.891      316.30088     -54329.59       191.58283      191.47873      735.82714    
     38100  -54625.464      313.17846     -54312.285      191.55566      191.4525       736.13632    
     38200  -54600.943      313.19784     -54287.745      191.52854      191.4267       736.44549    
     38300  -54580.038      319.14042     -54260.898      191.50176      191.40169      736.75466    
     38400  -54553.068      317.44661     -54235.621      191.4739       191.37601      737.06383    
     38500  -54530.661      317.6462      -54213.014      191.44771      191.35215      737.373      
     38600  -54510.457      314.70587     -54195.751      191.4202       191.32651      737.68217    
     38700  -54488.632      309.55701     -54179.075      191.39498      191.30264      737.99134    
     38800  -54461.543      309.41401     -54152.129      191.36882      191.27718      738.30051    
     38900  -54441.158      316.85546     -54124.303      191.34423      191.2528       738.60968    
     39000  -54416.595      317.76977     -54098.825      191.31978      191.22785      738.91886    
     39100  -54389.807      315.44342     -54074.364      191.29513      191.2019       739.22803    
     39200  -54367.213      319.42867     -54047.784      191.27295      191.1778       739.5372     
     39300  -54338.4        318.93442     -54019.465      191.24774      191.15073      739.84637    
     39400  -54314.693      316.16327     -53998.53       191.22593      191.12726      740.15554    
     39500  -54300.332      316.68107     -53983.651      191.20042      191.10034      740.46471    
     39600  -54278.435      317.09376     -53961.341      191.17773      191.07661      740.77388    
     39700  -54253.559      317.50751     -53936.052      191.1527       191.05136      741.08305    
     39800  -54228.536      320.17614     -53908.36       191.12769      191.02698      741.39222    
     39900  -54198.427      315.85551     -53882.571      191.10328      191.00407      741.70139    
     40000  -54181.724      316.77124     -53864.953      191.07629      190.97921      742.01057    
     40100  -54162.286      314.2414      -53848.044      191.0521       190.95738      742.31974    
     40200  -54138.457      315.49716     -53822.96       191.02489      190.933        742.62891    
     40300  -54111.346      316.64856     -53794.698      191.00023      190.91149      742.93808    
     40400  -54084.642      314.96676     -53769.675      190.97374      190.88796      743.24725    
     40500  -54068.925      319.76442     -53749.161      190.94863      190.86522      743.55642    
     40600  -54045.18       311.12728     -53734.052      190.92439      190.84239      743.86559    
     40700  -54025.128      313.96544     -53711.163      190.89949      190.81844      744.17476    
     40800  -53995.545      311.39955     -53684.145      190.87659      190.79601      744.48393    
     40900  -53975.11       318.35618     -53656.754      190.85245      190.77118      744.79311    
     41000  -53950.086      319.31727     -53630.768      190.83092      190.74782      745.10228    
     41100  -53922.793      316.29014     -53606.503      190.80797      190.72239      745.41145    
     41200  -53900.896      317.04445     -53583.851      190.78609      190.69774      745.72062    
     41300  -53876.912      315.33877     -53561.573      190.76399      190.67268      746.02979    
     41400  -53853.92       315.86471     -53538.056      190.74164      190.64716      746.33896    
     41500  -53829.103      316.58989     -53512.513      190.72016      190.62205      746.64813    
     41600  -53806.428      320.66719     -53485.76       190.6967       190.59589      746.9573     
     41700  -53784.463      322.63993     -53461.823      190.67477      190.57214      747.26647    
     41800  -53759.762      314.58856     -53445.173      190.6501       190.54625      747.57565    
     41900  -53739.186      313.86351     -53425.323      190.62762      190.52304      747.88482    
     42000  -53717.85       317.55392     -53400.296      190.60282      190.49816      748.19399    
     42100  -53692.713      319.87346     -53372.839      190.57935      190.47574      748.50316    
     42200  -53663.843      319.61923     -53344.224      190.55419      190.45232      748.81233    
     42300  -53634.406      319.91456     -53314.492      190.53033      190.43052      749.1215     
     42400  -53616.212      321.39073     -53294.821      190.5061       190.40809      749.43067    
     42500  -53596.73       317.8469      -53278.883      190.48222      190.38601      749.73984    
     42600  -53572.547      314.64252     -53257.905      190.45888      190.36426      750.04901    
     42700  -53550.588      316.64413     -53233.944      190.43545      190.34203      750.35818    
     42800  -53519.054      312.17291     -53206.881      190.41289      190.31989      750.66736    
     42900  -53498.025      319.32178     -53178.704      190.39091      190.29688      750.97653    
     43000  -53472.095      316.69315     -53155.402      190.36964      190.27368      751.2857     
     43100  -53455.064      314.33447     -53140.729      190.34858      190.25009      751.59487    
     43200  -53434.951      316.83566     -53118.115      190.32807      190.22664      751.90404    
     43300  -53409.199      317.75063     -53091.448      190.30772      190.20286      752.21321    
     43400  -53381.915      318.22512     -53063.69       190.28844      190.17978      752.52238    
     43500  -53357.105      318.08131     -53039.024      190.26814      190.15611      752.83155    
     43600  -53338.659      315.48806     -53023.171      190.24867      190.13426      753.14072    
     43700  -53314.295      312.27012     -53002.025      190.22821      190.11242      753.4499     
     43800  -53291.374      316.94193     -52974.432      190.20833      190.09179      753.75907    
     43900  -53265.84       319.63081     -52946.21       190.18788      190.07142      754.06824    
     44000  -53239.16       317.53567     -52921.625      190.16702      190.05207      754.37741    
     44100  -53216.58       317.57964     -52899.001      190.14595      190.03375      754.68658    
     44200  -53195.084      318.02596     -52877.058      190.12416      190.01533      754.99575    
     44300  -53169.307      310.00125     -52859.305      190.10335      189.99804      755.30492    
     44400  -53146.993      311.11362     -52835.879      190.08103      189.97921      755.61409    
     44500  -53118.104      313.39397     -52804.71       190.06072      189.96253      755.92326    
     44600  -53095.861      318.82993     -52777.031      190.03838      189.94358      756.23244    
     44700  -53069.769      317.66937     -52752.099      190.01801      189.92598      756.54161    
     44800  -53046.109      316.0098      -52730.099      189.99723      189.90678      756.85078    
     44900  -53022.675      310.261       -52712.414      189.97737      189.88733      757.15995    
     45000  -53004.996      315.56812     -52689.428      189.95839      189.86764      757.46912    
     45100  -52977.915      317.63656     -52660.278      189.93898      189.84661      757.77829    
     45200  -52954.169      320.79826     -52633.371      189.92138      189.82717      758.08746    
     45300  -52926.843      316.74256     -52610.1        189.90191      189.80505      758.39663    
     45400  -52907.358      317.9695      -52589.389      189.88558      189.78587      758.7058     
     45500  -52882.067      313.68189     -52568.385      189.86625      189.76399      759.01497    
     45600  -52856.995      313.28421     -52543.71       189.84959      189.74528      759.32415    
     45700  -52827.289      315.72552     -52511.564      189.83029      189.72504      759.63332    
     45800  -52803.931      317.97764     -52485.954      189.81219      189.70654      759.94249    
     45900  -52781.881      316.59099     -52465.29       189.7936       189.68818      760.25166    
     46000  -52761.309      315.49372     -52445.815      189.77373      189.66934      760.56083    
     46100  -52731.743      310.03888     -52421.704      189.75545      189.65283      760.87       
     46200  -52712.37       317.39777     -52394.973      189.73359      189.63365      761.17917    
     46300  -52683.251      314.62426     -52368.627      189.71526      189.61794      761.48834    
     46400  -52660.741      318.49084     -52342.25       189.69314      189.59798      761.79751    
     46500  -52636.555      320.21816     -52316.337      189.675        189.58183      762.10669    
     46600  -52611.267      315.76825     -52295.499      189.65316      189.56151      762.41586    
     46700  -52591.344      314.96981     -52276.375      189.63487      189.54391      762.72503    
     46800  -52567.7        315.55389     -52252.146      189.61468      189.52358      763.0342     
     46900  -52538.041      315.64872     -52222.393      189.59588      189.50386      763.34337    
     47000  -52515.569      322.26372     -52193.305      189.57771      189.48397      763.65254    
     47100  -52492.191      320.50049     -52171.691      189.55893      189.4629       763.96171    
     47200  -52471.5        321.33327     -52150.167      189.54208      189.44346      764.27088    
     47300  -52441.701      312.9313      -52128.77       189.52374      189.42188      764.58005    
     47400  -52422.587      315.09082     -52107.496      189.5079       189.40249      764.88923    
     47500  -52400.149      316.86099     -52083.288      189.49009      189.381        765.1984     
     47600  -52372.605      318.19185     -52054.413      189.47405      189.36164      765.50757    
     47700  -52346.039      321.82675     -52024.212      189.45642      189.34103      765.81674    
     47800  -52320.201      318.52654     -52001.675      189.43984      189.3222       766.12591    
     47900  -52301.742      319.57906     -51982.163      189.42189      189.30246      766.43508    
     48000  -52275.175      316.87965     -51958.295      189.40437      189.28406      766.74425    
     48100  -52251.434      316.92966     -51934.504      189.38601      189.26572      767.05342    
     48200  -52224.857      315.23652     -51909.621      189.36736      189.24818      767.36259    
     48300  -52204.535      319.55952     -51884.976      189.34863      189.23131      767.67176    
     48400  -52179.462      316.59235     -51862.87       189.32953      189.2147       767.98094    
     48500  -52154.542      313.3449      -51841.197      189.31082      189.19853      768.29011    
     48600  -52128.527      311.47534     -51817.052      189.29214      189.18276      768.59928    
     48700  -52104.87       316.25129     -51788.619      189.27318      189.16679      768.90845    
     48800  -52076.006      317.71838     -51758.287      189.25553      189.1518       769.21762    
     48900  -52053.545      318.94608     -51734.598      189.23738      189.13543      769.52679    
     49000  -52028.516      312.6319      -51715.884      189.22121      189.12005      769.83596    
     49100  -52005.693      313.30287     -51692.39       189.20401      189.10273      770.14513    
     49200  -51979.291      313.4015      -51665.89       189.1887       189.0869       770.4543     
     49300  -51949.538      312.51091     -51637.028      189.17222      189.06915      770.76348    
     49400  -51932.287      323.22426     -51609.062      189.15714      189.05233      771.07265    
     49500  -51909.42       319.42167     -51589.999      189.14142      189.03414      771.38182    
     49600  -51884.359      313.98931     -51570.37       189.12664      189.01688      771.69099    
     49700  -51857.444      314.46123     -51542.983      189.11082      188.9989       772.00016    
     49800  -51828.424      314.69531     -51513.729      189.09501      188.9813       772.30933    
     49900  -51805.354      317.77172     -51487.582      189.07896      188.96412      772.6185     
     50000  -51782.323      313.59867     -51468.725      189.062        188.94662      772.92767    
     50100  -51765.078      316.63119     -51448.446      189.04613      188.93055      773.23684    
     50200  -51738.974      316.65129     -51422.322      189.02786      188.91339      773.54602    
     50300  -51710.227      317.90568     -51392.322      189.01111      188.89877      773.85519    
     50400  -51682.427      316.95948     -51365.468      188.99208      188.88267      774.16436    
     50500  -51665.216      316.42085     -51348.795      188.97508      188.86884      774.47353    
     50600  -51640.416      314.18019     -51326.236      188.95587      188.85298      774.7827     
     50700  -51614.353      316.44944     -51297.903      188.93871      188.83928      775.09187    
     50800  -51588.579      320.84776     -51267.731      188.92004      188.82408      775.40104    
     50900  -51561.786      320.61954     -51241.167      188.90267      188.80947      775.71021    
     51000  -51537.432      315.58677     -51221.845      188.88516      188.79402      776.01938    
     51100  -51512.006      311.16479     -51200.842      188.86795      188.77761      776.32855    
     51200  -51484.1        310.83244     -51173.267      188.85193      188.76158      776.63773    
     51300  -51459.227      315.71458     -51143.512      188.83479      188.74327      776.9469     
     51400  -51434.84       318.6858      -51116.155      188.8195       188.72577      777.25607    
     51500  -51413.265      315.87026     -51097.395      188.80358      188.70662      777.56524    
     51600  -51392.374      316.24179     -51076.133      188.78834      188.68747      777.87441    
     51700  -51364.524      315.63109     -51048.893      188.77253      188.66763      778.18358    
     51800  -51340.652      320.71917     -51019.932      188.75729      188.64832      778.49275    
     51900  -51312.2        318.49155     -50993.708      188.74162      188.62845      778.80192    
     52000  -51293.23       317.51594     -50975.714      188.72593      188.60907      779.11109    
     52100  -51267.032      313.75826     -50953.274      188.71015      188.59016      779.42027    
     52200  -51245.843      319.00471     -50926.838      188.69356      188.57157      779.72944    
     52300  -51218.482      320.12626     -50898.356      188.6771       188.55396      780.03861    
     52400  -51187.24       318.61344     -50868.627      188.65965      188.53642      780.34778    
     52500  -51163.574      319.55657     -50844.018      188.64254      188.51993      780.65695    
     52600  -51142.014      316.30421     -50825.71       188.62477      188.50329      780.96612    
     52700  -51115.662      313.99766     -50801.664      188.6067       188.48709      781.27529    
     52800  -51092.258      317.65116     -50774.606      188.58834      188.47111      781.58446    
     52900  -51065.784      319.33486     -50746.449      188.57002      188.45517      781.89363    
     53000  -51039.987      319.23766     -50720.75       188.55143      188.43903      782.2028     
     53100  -51014.576      312.96861     -50701.607      188.5336       188.42335      782.51198    
     53200  -50992.867      314.17476     -50678.692      188.51552      188.40695      782.82115    
     53300  -50971.091      318.40277     -50652.688      188.49813      188.39078      783.13032    
     53400  -50942.969      317.19928     -50625.77       188.48082      188.37394      783.43949    
     53500  -50919.41       318.70445     -50600.706      188.46467      188.35763      783.74866    
     53600  -50895.017      315.79795     -50579.219      188.44859      188.3406       784.05783    
     53700  -50871.43       315.65693     -50555.773      188.43355      188.32355      784.367      
     53800  -50844.764      316.76173     -50528.003      188.41869      188.30618      784.67617    
     53900  -50816.021      321.37113     -50494.649      188.40414      188.28893      784.98534    
     54000  -50785.51       317.57234     -50467.938      188.38906      188.2712       785.29452    
     54100  -50763.828      317.45278     -50446.375      188.37468      188.25433      785.60369    
     54200  -50743.909      321.19007     -50422.719      188.35957      188.23694      785.91286    
     54300  -50715.789      316.33436     -50399.455      188.3446       188.22029      786.22203    
     54400  -50689.457      314.12054     -50375.337      188.32863      188.20344      786.5312     
     54500  -50669.609      318.62466     -50350.985      188.31237      188.18765      786.84037    
     54600  -50642.079      313.36268     -50328.716      188.29504      188.1716       787.14954    
     54700  -50619.385      315.10658     -50304.279      188.27779      188.15641      787.45871    
     54800  -50592.262      318.78493     -50273.477      188.25959      188.14103      787.76788    
     54900  -50561.717      319.98866     -50241.728      188.24095      188.1259       788.07706    
     55000  -50540.953      323.70669     -50217.247      188.22277      188.11156      788.38623    
     55100  -50512.522      317.36965     -50195.152      188.20345      188.09625      788.6954     
     55200  -50488.029      316.76281     -50171.266      188.18556      188.08206      789.00457    
     55300  -50463.478      315.35364     -50148.125      188.16641      188.06619      789.31374    
     55400  -50439.837      314.77531     -50125.062      188.14914      188.05174      789.62291    
     55500  -50411.849      312.4091      -50099.44       188.13125      188.03576      789.93208    
     55600  -50387.183      315.99184     -50071.191      188.11469      188.01993      790.24125    
     55700  -50355.707      316.29335     -50039.414      188.09797      188.00278      790.55042    
     55800  -50331.237      318.42777     -50012.81       188.08205      187.98556      790.85959    
     55900  -50311.239      318.89814     -49992.341      188.06645      187.96758      791.16877    
     56000  -50283.93       315.20841     -49968.722      188.05087      187.94882      791.47794    
     56100  -50260.054      316.39151     -49943.662      188.03588      187.9302       791.78711    
     56200  -50232.805      315.07077     -49917.735      188.02048      187.91067      792.09628    
     56300  -50210.545      315.82097     -49894.724      188.00478      187.89099      792.40545    
     56400  -50185.222      313.0016      -49872.22       187.98897      187.87158      792.71462    
     56500  -50161.083      317.3759      -49843.707      187.97232      187.85182      793.02379    
     56600  -50132.065      321.7925      -49810.273      187.95553      187.83277      793.33296    
     56700  -50102.922      323.12546     -49779.797      187.93787      187.81375      793.64213    
     56800  -50081.164      319.25392     -49761.91       187.91994      187.79577      793.95131    
     56900  -50057.336      318.5082      -49738.828      187.90151      187.77823      794.26048    
     57000  -50030.851      314.14765     -49716.703      187.88266      187.76062      794.56965    
     57100  -50006.899      315.11467     -49691.784      187.86398      187.74359      794.87882    
     57200  -49980.251      314.21389     -49666.037      187.84492      187.72662      795.18799    
     57300  -49957.455      318.46881     -49638.986      187.82609      187.70999      795.49716    
     57400  -49927.796      317.47072     -49610.325      187.80664      187.69224      795.80633    
     57500  -49901.479      318.3668      -49583.112      187.78897      187.6759       796.1155     
     57600  -49876.023      316.02163     -49560.001      187.7691       187.65722      796.42467    
     57700  -49849.293      312.19323     -49537.1        187.75166      187.64049      796.73385    
     57800  -49823.21       312.26379     -49510.946      187.73274      187.6216       797.04302    
     57900  -49800.511      317.54739     -49482.963      187.71541      187.60341      797.35219    
     58000  -49779.023      319.74006     -49459.283      187.69763      187.58446      797.66136    
     58100  -49753.068      315.96438     -49437.104      187.6808       187.5659       797.97053    
     58200  -49724.675      314.83215     -49409.843      187.66393      187.54687      798.2797     
     58300  -49694.489      314.074       -49380.415      187.64695      187.52755      798.58887    
     58400  -49668.177      318.17109     -49350.006      187.63101      187.50904      798.89804    
     58500  -49646.067      320.66795     -49325.399      187.61405      187.48952      799.20721    
     58600  -49620.151      316.73877     -49303.412      187.59837      187.47196      799.51638    
     58700  -49598.146      320.30492     -49277.841      187.58099      187.45304      799.82556    
     58800  -49568.24       317.59226     -49250.647      187.56457      187.43566      800.13473    
     58900  -49542.536      317.53433     -49225.002      187.5472       187.41804      800.4439     
     59000  -49516.917      314.16956     -49202.747      187.52945      187.40071      800.75307    
     59100  -49489.965      314.76873     -49175.197      187.51115      187.38398      801.06224    
     59200  -49457.581      316.25117     -49141.33       187.49217      187.36734      801.37141    
     59300  -49427.91       320.59465     -49107.315      187.47306      187.35105      801.68058    
     59400  -49405.469      322.59427     -49082.875      187.45362      187.33485      801.98975    
     59500  -49378.676      318.89418     -49059.781      187.43376      187.31874      802.29892    
     59600  -49355.946      319.65974     -49036.286      187.41352      187.30263      802.6081     
     59700  -49329.719      317.97037     -49011.749      187.3937       187.28651      802.91727    
     59800  -49303.133      315.99243     -48987.14       187.37382      187.26935      803.22644    
     59900  -49279.527      318.00836     -48961.519      187.35494      187.2527       803.53561    
     60000  -49248.629      313.54061     -48935.088      187.33561      187.23483      803.84478    
     60100  -49228.401      317.12249     -48911.279      187.31745      187.21709      804.15395    
     60200  -49203.621      315.15912     -48888.462      187.29983      187.19869      804.46312    
     60300  -49174.296      317.62477     -48856.671      187.2821       187.1796       804.77229    
     60400  -49141.543      317.71412     -48823.829      187.26516      187.16059      805.08146    
     60500  -49117.656      323.093       -48794.563      187.24833      187.14072      805.39064    
     60600  -49092.378      317.8389      -48774.539      187.23174      187.12033      805.69981    
     60700  -49061.676      314.38069     -48747.296      187.21561      187.10059      806.00898    
     60800  -49033.473      315.73638     -48717.736      187.19803      187.07981      806.31815    
     60900  -49006.491      317.14115     -48689.35       187.18067      187.05964      806.62732    
     61000  -48979.602      314.01312     -48665.589      187.16317      187.03935      806.93649    
     61100  -48951.937      312.80466     -48639.133      187.14494      187.01924      807.24566    
     61200  -48924.757      314.65723     -48610.1        187.1258       186.99943      807.55483    
     61300  -48899.542      316.40651     -48583.135      187.10627      186.98019      807.864      
     61400  -48878.421      315.99436     -48562.426      187.08641      186.96132      808.17317    
     61500  -48847.947      315.15471     -48532.792      187.06601      186.94254      808.48235    
     61600  -48818.596      317.36579     -48501.23       187.04513      186.92393      808.79152    
     61700  -48791.563      320.70782     -48470.855      187.02461      186.90592      809.10069    
     61800  -48765.853      318.27652     -48447.577      187.00341      186.88753      809.40986    
     61900  -48734.833      314.03559     -48420.797      186.98297      186.86993      809.71903    
     62000  -48707.754      316.42423     -48391.329      186.96178      186.85144      810.0282     
     62100  -48679.37       315.95171     -48363.419      186.94139      186.83337      810.33737    
     62200  -48651.725      312.44645     -48339.279      186.9208       186.81405      810.64654    
     62300  -48627.452      317.73151     -48309.721      186.90125      186.79503      810.95571    
     62400  -48597.581      319.18955     -48278.391      186.88149      186.77547      811.26489    
     62500  -48571.77       322.18509     -48249.585      186.86242      186.75548      811.57406    
     62600  -48539.644      315.28002     -48224.364      186.84378      186.73487      811.88323    
     62700  -48511.293      315.61041     -48195.682      186.82552      186.71401      812.1924     
     62800  -48487.256      321.30014     -48165.956      186.80739      186.69331      812.50157    
     62900  -48454.961      315.55857     -48139.402      186.78936      186.6721       812.81074    
     63000  -48428.229      316.49738     -48111.732      186.77238      186.65145      813.11991    
     63100  -48400.046      317.24463     -48082.802      186.75452      186.63049      813.42908    
     63200  -48370.959      317.79551     -48053.163      186.73702      186.61056      813.73825    
     63300  -48344.272      321.39202     -48022.88       186.71911      186.59036      814.04743    
     63400  -48310.496      317.9768      -47992.519      186.70037      186.57026      814.3566     
     63500  -48282.308      319.45883     -47962.849      186.6825       186.55233      814.66577    
     63600  -48251.298      316.48156     -47934.816      186.66238      186.53287      814.97494    
     63700  -48226.485      320.629       -47905.856      186.64418      186.51544      815.28411    
     63800  -48195.7        318.488       -47877.212      186.62349      186.49687      815.59328    
     63900  -48163.678      315.65003     -47848.028      186.60335      186.4795       815.90245    
     64000  -48132.053      314.22924     -47817.824      186.58321      186.46198      816.21162    
     64100  -48104.092      316.00888     -47788.083      186.56228      186.44417      816.52079    
     64200  -48077.242      319.78283     -47757.459      186.54157      186.42691      816.82996    
     64300  -48049.654      320.723       -47728.931      186.52045      186.40889      817.13914    
     64400  -48017.816      317.41733     -47700.398      186.50063      186.39167      817.44831    
     64500  -47990.602      320.43224     -47670.17       186.47991      186.3732       817.75748    
     64600  -47960.593      320.85502     -47639.738      186.45987      186.35504      818.06665    
     64700  -47926.365      316.1449      -47610.22       186.44067      186.33691      818.37582    
     64800  -47898.322      318.1005      -47580.222      186.42111      186.3177       818.68499    
     64900  -47868.455      319.30188     -47549.153      186.40285      186.2992       818.99416    
     65000  -47836.382      317.48614     -47518.896      186.3841       186.27957      819.30333    
     65100  -47807.492      320.09232     -47487.4        186.36626      186.2599       819.6125     
     65200  -47775.505      319.20634     -47456.299      186.34855      186.24019      819.92168    
     65300  -47746.304      321.77411     -47424.529      186.33026      186.2193       820.23085    
     65400  -47712.824      318.93533     -47393.889      186.3133       186.19941      820.54002    
     65500  -47678.551      316.51676     -47362.034      186.29485      186.17834      820.84919    
     65600  -47650.992      319.34024     -47331.652      186.27694      186.15823      821.15836    
     65700  -47620.604      320.17802     -47300.426      186.25873      186.13785      821.46753    
     65800  -47586.905      317.3382      -47269.567      186.23986      186.11736      821.7767     
     65900  -47559.399      320.48805     -47238.911      186.22112      186.09818      822.08587    
     66000  -47526.177      318.82433     -47207.352      186.20148      186.07857      822.39504    
     66100  -47495.083      319.27817     -47175.805      186.18223      186.05962      822.70422    
     66200  -47463.073      318.95176     -47144.121      186.16247      186.04129      823.01339    
     66300  -47427.019      315.23597     -47111.783      186.14197      186.02273      823.32256    
     66400  -47397.449      318.13106     -47079.318      186.12244      186.00508      823.63173    
     66500  -47365.61       319.00604     -47046.604      186.10215      185.98702      823.9409     
     66600  -47331.362      316.89855     -47014.463      186.08209      185.9693       824.25007    
     66700  -47299.762      319.12006     -46980.642      186.06242      185.95119      824.55924    
     66800  -47266.293      318.59091     -46947.702      186.04255      185.93263      824.86841    
     66900  -47234.824      319.42249     -46915.402      186.02422      185.91519      825.17758    
     67000  -47199.435      316.86812     -46882.567      186.00438      185.89559      825.48675    
     67100  -47169.267      319.94787     -46849.319      185.98675      185.87749      825.79593    
     67200  -47137.285      320.3454      -46816.939      185.96847      185.85869      826.1051     
     67300  -47103.659      319.28903     -46784.37       185.95054      185.83981      826.41427    
     67400  -47070.539      319.43374     -46751.105      185.93359      185.8212       826.72344    
     67500  -47036.017      317.88921     -46718.127      185.9164       185.80223      827.03261    
     67600  -46999.243      315.61685     -46683.626      185.89988      185.78392      827.34178    
     67700  -46969.76       320.85851     -46648.902      185.88312      185.7652       827.65095    
     67800  -46933.417      319.44596     -46613.971      185.86673      185.74686      827.96012    
     67900  -46900.132      321.4096      -46578.723      185.85019      185.72885      828.26929    
     68000  -46866.595      323.80533     -46542.789      185.83368      185.71106      828.57847    
     68100  -46826.707      318.36        -46508.347      185.81711      185.69353      828.88764    
     68200  -46790.911      317.38492     -46473.526      185.79988      185.67623      829.19681    
     68300  -46759.018      319.82552     -46439.192      185.78291      185.65966      829.50598    
     68400  -46720.195      316.29882     -46403.896      185.7656       185.64293      829.81515    
     68500  -46687.244      318.67996     -46368.564      185.74792      185.62653      830.12432    
     68600  -46657.413      323.48429     -46333.929      185.73027      185.61066      830.43349    
     68700  -46618.787      320.92494     -46297.863      185.71271      185.59467      830.74266    
     68800  -46580.485      317.87292     -46262.612      185.69488      185.57896      831.05183    
     68900  -46545.559      317.98236     -46227.576      185.67728      185.56381      831.361      
     69000  -46513.058      320.78684     -46192.271      185.65986      185.54848      831.67018    
     69100  -46477.171      319.58755     -46157.584      185.64269      185.53317      831.97935    
     69200  -46441.156      319.79918     -46121.357      185.62563      185.51823      832.28852    
     69300  -46404.198      319.85768     -46084.34       185.60899      185.50292      832.59769    
     69400  -46366.621      321.05794     -46045.563      185.59273      185.48728      832.90686    
     69500  -46325.702      318.10685     -46007.595      185.57663      185.47174      833.21603    
     69600  -46294.908      325.09925     -45969.808      185.56043      185.45567      833.5252     
     69700  -46255.205      321.92768     -45933.277      185.54543      185.43992      833.83437    
     69800  -46216.533      321.14865     -45895.384      185.5297       185.42323      834.14354    
     69900  -46183.788      325.20488     -45858.583      185.51469      185.40714      834.45272    
     70000  -46141.944      322.28537     -45819.659      185.49978      185.39053      834.76189    
     70100  -46106.35       322.91844     -45783.431      185.48478      185.37375      835.07106    
     70200  -46068.963      324.12902     -45744.834      185.47073      185.35796      835.38023    
     70300  -46032.507      325.66475     -45706.843      185.45543      185.34087      835.6894     
     70400  -45994.933      324.84071     -45670.092      185.44177      185.3255       835.99857    
     70500  -45949.637      317.25926     -45632.378      185.42691      185.30912      836.30774    
     70600  -45916.765      321.62036     -45595.144      185.41236      185.29329      836.61691    
     70700  -45874.622      318.97802     -45555.644      185.39849      185.27856      836.92608    
     70800  -45836.312      321.17324     -45515.139      185.38295      185.2623       837.23526    
     70900  -45797.396      323.20837     -45474.188      185.36906      185.24787      837.54443    
     71000  -45762.084      326.34406     -45435.74       185.35402      185.23301      837.8536     
     71100  -45726.14       328.85632     -45397.283      185.33911      185.21828      838.16277    
     71200  -45682.485      325.06847     -45357.417      185.32509      185.20466      838.47194    
     71300  -45644.898      327.60443     -45317.294      185.30947      185.18996      838.78111    
     71400  -45605.374      329.7015      -45275.673      185.2954       185.17681      839.09028    
     71500  -45562.59       324.84537     -45237.744      185.28045      185.16299      839.39945    
     71600  -45523.373      326.42364     -45196.949      185.26594      185.14993      839.70862    
     71700  -45484.152      328.05846     -45156.093      185.25175      185.13724      840.01779    
     71800  -45441.341      327.12729     -45114.214      185.23699      185.12368      840.32697    
     71900  -45400.099      325.47463     -45074.624      185.22343      185.11156      840.63614    
     72000  -45364.141      329.00094     -45035.14       185.20891      185.09824      840.94531    
     72100  -45324.351      329.38004     -44994.971      185.19567      185.08569      841.25448    
     72200  -45285.929      332.15083     -44953.778      185.18229      185.07269      841.56365    
     72300  -45244.454      330.91273     -44913.541      185.16864      185.05922      841.87282    
     72400  -45199.602      330.77015     -44868.832      185.15624      185.0467       842.18199    
     72500  -45157.464      331.19027     -44826.274      185.14279      185.0326       842.49116    
     72600  -45113.898      330.41536     -44783.482      185.13094      185.02001      842.80033    
     72700  -45078.062      336.01225     -44742.05       185.11805      185.00628      843.10951    
[...]
     81600  -55833.073      400.36197     -55432.711      184.86754      184.58701      870.62573    
     81700  -55983.525      398.44839     -55585.076      184.87831      184.59425      870.9349     
     81800  -56131.648      396.31343     -55735.335      184.88901      184.60145      871.24407    
     81900  -56277.669      394.07002     -55883.599      184.89965      184.6086       871.55324    
     82000  -56422.458      392.44461     -56030.013      184.91022      184.61571      871.86242    
     82100  -56565.408      390.72163     -56174.686      184.92073      184.62276      872.17159    
     82200  -56706.556      388.83181     -56317.724      184.93117      184.62977      872.48076    
     82300  -56846.605      387.37428     -56459.23       184.94153      184.63671      872.78993    
     82400  -56985.368      386.07509     -56599.293      184.95187      184.64366      873.0991     
     82500  -57122.903      384.85526     -56738.048      184.96219      184.65062      873.40827    
     82600  -57259.121      383.55625     -56875.565      184.97246      184.65752      873.71744    
     82700  -57394.128      382.28189     -57011.846      184.98265      184.66437      874.02661    
     82800  -57527.924      381.03207     -57146.892      184.99279      184.67119      874.33578    
     82900  -57660.55       379.82078     -57280.729      185.00289      184.67797      874.64495    
     83000  -57792.063      378.66187     -57413.401      185.01294      184.68472      874.95413    
     83100  -57922.512      377.54535     -57544.967      185.02296      184.69145      875.2633     
     83200  -58051.923      376.44591     -57675.477      185.03294      184.69815      875.57247    
     83300  -58178.647      373.87773     -57804.769      185.04289      184.70484      875.88164    
     83400  -58301.521      370.59177     -57930.929      185.05294      184.71162      876.19081    
     83500  -58419.963      366.94057     -58053.023      185.06296      184.71839      876.49998    
     83600  -58534.483      363.31585     -58171.167      185.07305      184.72523      876.80915    
     83700  -58645.592      360.06684     -58285.525      185.08316      184.73211      877.11832    
     83800  -58753.178      357.03382     -58396.144      185.09332      184.73903      877.42749    
     83900  -58856.791      353.77142     -58503.019      185.10354      184.74603      877.73667    
     84000  -58956.845      350.72713     -58606.118      185.11379      184.75307      878.04584    
     84100  -59053.037      347.64007     -58705.397      185.12414      184.76021      878.35501    
     84200  -59145.415      344.60727     -58800.807      185.13455      184.76742      878.66418    
     84300  -59233.973      341.67623     -58892.297      185.14504      184.77471      878.97335    
     84400  -59318.56       338.76361     -58979.797      185.15564      184.78211      879.28252    
     84500  -59399.143      335.90994     -59063.233      185.16631      184.78959      879.59169    
     84600  -59475.678      333.16137     -59142.516      185.17711      184.7972       879.90086    
     84700  -59548.036      330.49288     -59217.543      185.18802      184.80493      880.21003    
     84800  -59616.102      327.91162     -59288.19       185.19906      184.81278      880.5192     
     84900  -59679.773      325.4652      -59354.308      185.21025      184.82078      880.82838    
     85000  -59738.902      323.16284     -59415.74       185.22158      184.82892      881.13755    
     85100  -59793.315      321.00908     -59472.306      185.23308      184.83723      881.44672    
     85200  -59842.812      319.02818     -59523.784      185.24476      184.84571      881.75589    
     85300  -59887.329      317.41924     -59569.91       185.25655      184.85432      882.06506    
     85400  -59927.292      316.53336     -59610.758      185.2684       184.86301      882.37423    
     85500  -59962.531      315.70382     -59646.827      185.28035      184.87179      882.6834     
     85600  -59992.949      314.77495     -59678.174      185.29241      184.88063      882.99257    
     85700  -60018.494      314.09241     -59704.402      185.30461      184.88962      883.30174    
     85800  -60039.097      313.83262     -59725.264      185.31692      184.89871      883.61092    
     85900  -60054.701      313.7846      -59740.916      185.32937      184.90788      883.92009    
     86000  -60065.215      313.63249     -59751.582      185.34191      184.91714      884.22926    
     86100  -60070.579      313.4369      -59757.142      185.35458      184.92654      884.53843    
     86200  -60070.728      313.41729     -59757.31       185.36734      184.93605      884.8476     
     86300  -60065.333      313.31041     -59752.023      185.37992      184.9454       885.15677    
     86400  -60053.882      312.76979     -59741.112      185.39243      184.95467      885.46594    
     86500  -60035.903      312.05463     -59723.849      185.40481      184.96378      885.77511    
     86600  -60011.045      311.47097     -59699.574      185.41714      184.97286      886.08428    
     86700  -59979.178      310.7712      -59668.407      185.42942      184.9819       886.39346    
     86800  -59940.255      309.30121     -59630.954      185.44161      184.99087      886.70263    
     86900  -59893.526      306.27825     -59587.248      185.45378      184.99983      887.0118     
     87000  -59838.868      302.50213     -59536.366      185.46596      185.00875      887.32097    
     87100  -59776.106      297.92735     -59478.179      185.47807      185.01757      887.63014    
     87200  -59705.077      291.66039     -59413.416      185.49018      185.02636      887.93931    
     87300  -59625.815      283.13881     -59342.676      185.50233      185.03517      888.24848    
     87400  -59538.85       272.25534     -59266.594      185.51442      185.04394      888.55765    
     87500  -59445.065      258.72272     -59186.343      185.52647      185.05261      888.86682    
     87600  -59346.017      242.44198     -59103.575      185.53862      185.06123      889.17599    
     87700  -59244.03       223.68222     -59020.348      185.55074      185.06966      889.48517    
     87800  -59141.601      202.65557     -58938.945      185.56267      185.07776      889.79434    
     87900  -59040.566      178.73444     -58861.832      185.57443      185.08559      890.10351    
     88000  -59005.879      219.74596     -58786.133      185.58532      185.09245      890.41268    
     88100  -59023.284      330.97812     -58692.306      185.58062      185.08398      890.72185    
     88200  -59120.96       433.09096     -58687.869      185.60055      185.10063      891.03102    
     88300  -59165.423      337.59104     -58827.832      185.60801      185.10549      891.34019    
     88400  -59267.474      340.44427     -58927.03       185.62819      185.12167      891.64936    
     88500  -59304.115      303.91234     -59000.202      185.64623      185.13573      891.95853    
     88600  -59350.254      312.50595     -59037.748      185.66384      185.14927      892.26771    
     88700  -59353.188      306.64724     -59046.541      185.68358      185.1657       892.57688    
     88800  -59351.024      319.60708     -59031.417      185.70174      185.1837       892.88605    
     88900  -59368.506      340.6774      -59027.829      185.72901      185.2082       893.19522    
     89000  -59390.411      324.34624     -59066.065      185.75383      185.23531      893.50439    
     89100  -59428.801      314.76997     -59114.031      185.78108      185.26183      893.81356    
     89200  -59455.649      305.41436     -59150.235      185.80868      185.28983      894.12273    
     89300  -59475.818      308.91265     -59166.906      185.83723      185.3183       894.4319     
     89400  -59492.455      320.55874     -59171.896      185.86498      185.34336      894.74107    
     89500  -59492.553      312.36898     -59180.184      185.89636      185.37075      895.05025    
     89600  -59487.287      308.56836     -59178.719      185.92359      185.39268      895.35942    
     89700  -59487.783      325.22132     -59162.562      185.94957      185.41128      895.66859    
     89800  -59495.737      334.77704     -59160.96       185.98093      185.42629      895.97776    
     89900  -59513.156      323.10276     -59190.053      186.00956      185.43228      896.28693    
     90000  -59534.48       307.01216     -59227.468      186.04558      185.43859      896.5961     
     90100  -59543.421      299.38745     -59244.033      186.0783       185.44793      896.90527    
     90200  -59559.057      322.68332     -59236.373      186.11333      185.45664      897.21444    
     90300  -59567.348      329.42836     -59237.919      186.14889      185.46426      897.52361    
     90400  -59568.448      308.90251     -59259.546      186.18595      185.47408      897.83278    
     90500  -59584.55       312.41817     -59272.132      186.22082      185.48864      898.14196    
     90600  -59603.932      321.8353      -59282.097      186.2537       185.50879      898.45113    
     90700  -59619.158      317.3986      -59301.76       186.28106      185.53096      898.7603     
     90800  -59626.459      305.68466     -59320.774      186.3098       185.55496      899.06947    
     90900  -59629.801      307.10328     -59322.698      186.34128      185.58107      899.37864    
     91000  -59627.198      319.23127     -59307.967      186.37327      185.60665      899.68781    
     91100  -59622.886      328.12566     -59294.761      186.4063       185.63057      899.99698    
     91200  -59622.678      321.48465     -59301.193      186.43979      185.64842      900.30615    
     91300  -59639.438      316.38597     -59323.053      186.48167      185.66473      900.61532    
     91400  -59647.202      303.11592     -59344.086      186.52873      185.67644      900.9245     
     91500  -59649.884      306.85505     -59343.029      186.57875      185.68585      901.23367    
     91600  -59651.42       324.13431     -59327.286      186.63127      185.69412      901.54284    
     91700  -59655.672      331.61333     -59324.059      186.68475      185.70006      901.85201    
     91800  -59664.361      316.27652     -59348.085      186.73876      185.70709      902.16118    
     91900  -59674.892      303.72191     -59371.17       186.79232      185.71229      902.47035    
     92000  -59680.489      308.0795      -59372.41       186.84199      185.71607      902.77952    
     92100  -59680.884      321.33052     -59359.554      186.88729      185.72102      903.08869    
     92200  -59685.95       329.8832      -59356.066      186.92445      185.72794      903.39786    
     92300  -59694.816      317.77322     -59377.043      186.95619      185.74145      903.70704    
     92400  -59706.552      304.55835     -59401.994      186.98375      185.75508      904.01621    
     92500  -59719.842      310.32592     -59409.516      187.00925      185.77129      904.32538    
     92600  -59726.228      320.54993     -59405.678      187.03308      185.78833      904.63455    
     92700  -59730.813      320.97249     -59409.841      187.05372      185.8067       904.94372    
     92800  -59740.629      317.65415     -59422.975      187.07609      185.82721      905.25289    
     92900  -59747.537      310.85705     -59436.68       187.09641      185.84621      905.56206    
     93000  -59747.579      305.53394     -59442.045      187.12343      185.86485      905.87123    
     93100  -59754.885      321.17993     -59433.705      187.14897      185.8841       906.1804     
     93200  -59762.682      326.08362     -59436.598      187.17416      185.90356      906.48957    
     93300  -59772.616      314.3179      -59458.298      187.19944      185.92212      906.79875    
     93400  -59783.611      309.71588     -59473.895      187.22108      185.93604      907.10792    
     93500  -59782.39       310.00435     -59472.385      187.24467      185.94592      907.41709    
     93600  -59776.155      318.15458     -59458          187.26515      185.95461      907.72626    
     93700  -59776.676      327.04973     -59449.627      187.28375      185.95975      908.03543    
     93800  -59779.474      319.44945     -59460.024      187.3016       185.96627      908.3446     
     93900  -59786.939      309.42372     -59477.515      187.31685      185.97158      908.65377    
     94000  -59792.712      306.88521     -59485.826      187.32978      185.97828      908.96294    
     94100  -59788.19       310.38819     -59477.801      187.34143      185.98714      909.27211    
     94200  -59782.045      322.108       -59459.937      187.34915      185.99717      909.58129    
     94300  -59774.811      327.12192     -59447.689      187.35291      186.01044      909.89046    
     94400  -59767.748      316.28638     -59451.461      187.35578      186.02717      910.19963    
     94500  -59768.088      307.5785      -59460.509      187.35294      186.0432       910.5088     
     94600  -59773.824      313.37577     -59460.448      187.35081      186.0599       910.81797    
     94700  -59770.934      317.12692     -59453.807      187.35175      186.07568      911.12714    
     94800  -59764.769      317.45701     -59447.312      187.3549       186.08659      911.43631    
     94900  -59766.345      321.22214     -59445.123      187.36428      186.09743      911.74548    
     95000  -59762.485      313.12476     -59449.36       187.37718      186.10785      912.05465    
     95100  -59759.644      311.78828     -59447.856      187.39143      186.11507      912.36383    
     95200  -59759.174      320.91587     -59438.258      187.41107      186.1204       912.673      
     95300  -59756.306      320.79238     -59435.513      187.43376      186.12325      912.98217    
     95400  -59766.632      319.7855      -59446.847      187.45909      186.12253      913.29134    
     95500  -59771.629      309.60944     -59462.02       187.48668      186.12245      913.60051    
     95600  -59771.802      308.03724     -59463.765      187.51371      186.12414      913.90968    
     95700  -59768.061      317.39218     -59450.669      187.53994      186.12944      914.21885    
     95800  -59773.371      330.04332     -59443.328      187.56256      186.13844      914.52802    
     95900  -59780.796      321.14958     -59459.646      187.58331      186.15323      914.83719    
     96000  -59792.002      309.45709     -59482.545      187.60076      186.1733       915.14636    
     96100  -59796.072      304.89972     -59491.172      187.61638      186.19686      915.45554    
     96200  -59790.09       311.37909     -59478.711      187.63035      186.22372      915.76471    
     96300  -59781.514      325.15023     -59456.364      187.64611      186.25337      916.07388    
     96400  -59773.718      327.24659     -59446.471      187.65972      186.28016      916.38305    
     96500  -59775.888      320.94197     -59454.946      187.67949      186.30682      916.69222    
     96600  -59777.504      308.76084     -59468.743      187.70177      186.32893      917.00139    
     96700  -59776.264      306.85161     -59469.413      187.72473      186.34507      917.31056    
     96800  -59775.971      321.9921      -59453.979      187.75122      186.35883      917.61973    
     96900  -59771.695      326.44271     -59445.252      187.77531      186.36697      917.9289     
     97000  -59774.964      320.31382     -59454.65       187.80333      186.37218      918.23808    
     97100  -59778.335      307.18609     -59471.148      187.8338       186.37791      918.54725    
     97200  -59779.355      307.34368     -59472.011      187.86363      186.38234      918.85642    
     97300  -59773.02       317.47728     -59455.543      187.89605      186.39107      919.16559    
     97400  -59770.466      327.88635     -59442.58       187.928        186.40215      919.47476    
     97500  -59768.225      320.16337     -59448.061      187.95884      186.41637      919.78393    
     97600  -59768.801      309.15831     -59459.642      187.98591      186.43472      920.0931     
     97700  -59762.974      306.28684     -59456.687      188.01216      186.45824      920.40227    
     97800  -59755.704      318.30687     -59437.397      188.03215      186.4836       920.71144    
     97900  -59740.127      320.67352     -59419.453      188.05367      186.51366      921.02062    
     98000  -59733.925      320.42707     -59413.498      188.07762      186.54324      921.32979    
     98100  -59727.128      310.98946     -59416.139      188.10697      186.57099      921.63896    
     98200  -59721.971      309.96744     -59412.004      188.14466      186.59802      921.94813    
     98300  -59706.647      312.01339     -59394.633      188.18901      186.61977      922.2573     
     98400  -59699.5        324.0687      -59375.431      188.24211      186.63711      922.56647    
     98500  -59696.687      325.6094      -59371.077      188.29995      186.65193      922.87564    
     98600  -59696.75       313.8117      -59382.939      188.36121      186.66549      923.18481    
     98700  -59706.732      311.87368     -59394.858      188.42342      186.67686      923.49398    
     98800  -59707.224      310.85494     -59396.369      188.48614      186.68882      923.80315    
     98900  -59707.269      318.05253     -59389.216      188.54687      186.70279      924.11233    
     99000  -59708.64       324.63749     -59384.002      188.60691      186.71994      924.4215     
     99100  -59715.135      324.54768     -59390.588      188.66452      186.7407       924.73067    
     99200  -59726.648      316.76575     -59409.882      188.71889      186.76741      925.03984    
     99300  -59729.969      304.75807     -59425.211      188.77333      186.79867      925.34901    
     99400  -59730.774      309.58186     -59421.193      188.82601      186.83117      925.65818    
     99500  -59722.919      320.59451     -59402.324      188.88154      186.86442      925.96735    
     99600  -59715.771      327.84514     -59387.925      188.93997      186.89686      926.27652    
     99700  -59720.915      327.78782     -59393.128      189.00115      186.92677      926.58569    
     99800  -59731.573      315.57701     -59415.996      189.06437      186.95388      926.89487    
     99900  -59731.819      301.37211     -59430.447      189.12922      186.97582      927.20404    
    100000  -59730.414      308.0125      -59422.401      189.19469      186.99155      927.51321    
Loop time of 35836.5 on 16 procs for 100000 steps with 8160 atoms

Performance: 0.241 ns/day, 99.546 hours/ns, 2.790 timesteps/s, 22.770 katom-step/s
47.0% CPU use with 16 MPI tasks x 1 OpenMP threads

MPI task timing breakdown:
Section |  min time  |  avg time  |  max time  |%varavg| %total
---------------------------------------------------------------
Pair    | 922.79     | 1121.8     | 1308.5     | 333.7 |  3.13
Neigh   | 2.813      | 4.478      | 6.1453     |  58.7 |  0.01
Comm    | 5237.3     | 5683.3     | 6308       | 403.4 | 15.86
Output  | 115.36     | 119.19     | 123.55     |  21.5 |  0.33
Modify  | 25163      | 25587      | 26000      | 157.7 | 71.40
Other   |            | 3320       |            |       |  9.27

Nlocal:            510 ave         971 max          51 min
Histogram: 2 3 2 0 0 1 2 4 0 2
Nghost:        1785.38 ave        2797 max         680 min
Histogram: 4 2 2 0 0 0 0 0 2 6
Neighs:              0 ave           0 max           0 min
Histogram: 16 0 0 0 0 0 0 0 0 0

Total # of neighbors = 0
Ave neighs/atom = 0
Neighbor list builds = 597
Dangerous builds = 0
Total wall time: 9:57:29
