LAMMPS (2 Aug 2023 - Update 3)
OMP_NUM_THREADS environment is not set. Defaulting to 1 thread. (src/comm.cpp:98)
  using 1 OpenMP thread(s) per MPI task
Reading data file ...
  orthogonal box = (-100 -100 -2.3312515) to (100 100 46.166171)
  4 by 4 by 1 MPI processor grid
  reading atoms ...
  1320 atoms
  read_data CPU = 0.008 seconds
Replication is creating a 1x1x17 = 17 times larger system...
  orthogonal box = (-100 -100 -2.3312515) to (100 100 822.12494)
  1 by 2 by 8 MPI processor grid
  22440 atoms
  replicate CPU = 0.003 seconds
System init for write_data ...
WARNING: Communication cutoff is 0.0. No ghost atoms will be generated. Atoms may get lost. (src/comm_brick.cpp:210)
Reading airebo potential file CH.airebo with DATE: 2011-10-25
Reading airebo potential file CH.airebo with DATE: 2011-10-25
Reading airebo potential file CH.airebo with DATE: 2011-10-25
Neighbor list info ...
  update: every = 1 steps, delay = 0 steps, check = yes
  max neighbors/atom: 2000, page size: 100000
  master list distance cutoff = 13.2
  ghost atom cutoff = 13.2
  binsize = 6.6, bins = 31 31 125
  6 neighbor lists, perpetual/occasional/extra = 6 0 0
  (1) pair airebo, perpetual, skip from (5)
      attributes: full, newton on, ghost
      pair build: skip/ghost
      stencil: none
      bin: none
  (2) pair airebo, perpetual, skip from (5)
      attributes: full, newton on, ghost
      pair build: skip/ghost
      stencil: none
      bin: none
  (3) pair airebo, perpetual, skip from (5)
      attributes: full, newton on, ghost
      pair build: skip/ghost
      stencil: none
      bin: none
  (4) pair lj/cut, perpetual, skip from (6)
      attributes: half, newton on, cut 13
      pair build: skip
      stencil: none
      bin: none
  (5) neighbor class addition, perpetual
      attributes: full, newton on, ghost
      pair build: full/bin/ghost
      stencil: full/ghost/bin/3d
      bin: standard
  (6) neighbor class addition, perpetual
      attributes: half, newton on, cut 13
      pair build: half/bin/atomonly/newton
      stencil: half/bin/3d
      bin: standard
Setting up sd style minimization ...
  Unit style    : metal
  Current step  : 0
Per MPI rank memory allocation (min/avg/max) = 14.84 | 14.84 | 14.84 Mbytes
   Step          Temp          E_pair         E_mol          TotEng         Press     
         0   0             -137150.81      0             -137150.81      5481.8219    
        30   0             -162240.06      0             -162240.06      34.778352    
Loop time of 1.26541 on 16 procs for 30 steps with 22440 atoms

98.9% CPU use with 16 MPI tasks x 1 OpenMP threads

Minimization stats:
  Stopping criterion = energy tolerance
  Energy initial, next-to-last, final = 
     -137150.806636803  -162229.709219587  -162240.063317566
  Force two-norm initial, final = 8110.465 40.787639
  Force max component initial, final = 534.82797 1.9411106
  Final line search alpha, max atom move = 0.051917894 0.10077838
  Iterations, force evaluations = 30 54

MPI task timing breakdown:
Section |  min time  |  avg time  |  max time  |%varavg| %total
---------------------------------------------------------------
Pair    | 1.1547     | 1.2088     | 1.2474     |   2.3 | 95.53
Neigh   | 0          | 0          | 0          |   0.0 |  0.00
Comm    | 0.011795   | 0.043923   | 0.096053   |  10.6 |  3.47
Output  | 0          | 0          | 0          |   0.0 |  0.00
Modify  | 0          | 0          | 0          |   0.0 |  0.00
Other   |            | 0.01268    |            |       |  1.00

Nlocal:         1402.5 ave        1447 max        1355 min
Histogram: 8 0 0 0 0 0 0 0 0 8
Nghost:         2102.5 ave        2149 max        2057 min
Histogram: 8 0 0 0 0 0 0 0 0 8
Neighs:              0 ave           0 max           0 min
Histogram: 16 0 0 0 0 0 0 0 0 0

Total # of neighbors = 0
Ave neighs/atom = 0
Neighbor list builds = 0
Dangerous builds = 0
Setting up Verlet run ...
  Unit style    : metal
  Current step  : 30
  Time step     : 0.001
Per MPI rank memory allocation (min/avg/max) = 15.47 | 15.47 | 15.47 Mbytes
   Step          Temp          E_pair         E_mol          TotEng         Press          Volume    
        30   300           -162240.06      0             -161369.92      62.960942      32978248     
Loop time of 1.99103e-05 on 16 procs for 0 steps with 22440 atoms

96.7% CPU use with 16 MPI tasks x 1 OpenMP threads

MPI task timing breakdown:
Section |  min time  |  avg time  |  max time  |%varavg| %total
---------------------------------------------------------------
Pair    | 0          | 0          | 0          |   0.0 |  0.00
Neigh   | 0          | 0          | 0          |   0.0 |  0.00
Comm    | 0          | 0          | 0          |   0.0 |  0.00
Output  | 0          | 0          | 0          |   0.0 |  0.00
Modify  | 0          | 0          | 0          |   0.0 |  0.00
Other   |            | 1.991e-05  |            |       |100.00

Nlocal:         1402.5 ave        1409 max        1398 min
Histogram: 3 1 3 0 4 2 1 0 0 2
Nghost:        2103.12 ave        2112 max        2095 min
Histogram: 2 0 1 2 2 5 3 0 0 1
Neighs:              0 ave           0 max           0 min
Histogram: 16 0 0 0 0 0 0 0 0 0

Total # of neighbors = 0
Ave neighs/atom = 0
Neighbor list builds = 0
Dangerous builds = 0
WARNING: Dump 2 includes no atom IDs and is not sorted by ID. This may complicate post-processing tasks or visualization (src/dump.cpp:221)
Setting up Verlet run ...
  Unit style    : metal
  Current step  : 0
  Time step     : 0.001
Per MPI rank memory allocation (min/avg/max) = 16.97 | 16.97 | 16.97 Mbytes
   Step         PotEng         KinEng         TotEng           Lx             Ly             Lz      
         0  -162240.06      870.14052     -161369.92      200            200            824.45619    
       100  -162237.02      913.51116     -161323.51      200.02906      199.93731      824.86842    
       200  -162137.43      773.18996     -161364.24      200.03585      199.81075      825.28065    
       300  -161942.64      629.77588     -161312.86      200.14685      199.74645      825.69288    
       400  -162015.38      766.62119     -161248.76      200.16736      199.66527      826.1051     
       500  -162107.38      873.92422     -161233.45      200.23378      199.69137      826.51733    
       600  -162016.84      760.34165     -161256.49      200.21131      199.7318       826.92956    
       700  -162124.45      922.00497     -161202.44      200.18154      199.80064      827.34179    
       800  -162144.35      908.71906     -161235.63      200.01744      199.81985      827.75402    
       900  -162100.46      832.20822     -161268.25      199.97547      199.88501      828.16624    
      1000  -162061.03      833.02094     -161228.01      199.94868      199.93161      828.57847    
      1100  -161988.06      813.11572     -161174.94      199.90835      199.94286      828.9907     
      1200  -162017.92      895.39539     -161122.53      199.93852      199.97417      829.40293    
      1300  -162083.95      944.22277     -161139.73      199.96331      199.93558      829.81516    
      1400  -162079.26      885.0742      -161194.18      199.97836      199.85974      830.22738    
      1500  -162108.1       878.01604     -161230.08      200.01741      199.78753      830.63961    
      1600  -162095.94      842.16078     -161253.78      200.08615      199.75732      831.05184    
      1700  -162033.3       811.6862      -161221.61      200.06947      199.75675      831.46407    
      1800  -162065.21      900.94251     -161164.27      200.02524      199.79675      831.8763     
      1900  -162088.44      910.60854     -161177.83      199.98217      199.85217      832.28852    
      2000  -162049.67      839.63399     -161210.04      199.91194      199.87935      832.70075    
      2100  -162047.38      853.52281     -161193.86      199.90206      199.91095      833.11298    
      2200  -162017.09      860.38987     -161156.7       199.89285      199.90741      833.52521    
      2300  -161989.97      873.67663     -161116.3       199.90176      199.88624      833.93744    
      2400  -162004.65      904.95933     -161099.69      199.92808      199.86144      834.34967    
      2500  -162024.89      887.34452     -161137.55      199.9535       199.82153      834.76189    
      2600  -162028.09      859.54564     -161168.54      199.98207      199.78288      835.17412    
      2700  -162031.1       849.36374     -161181.74      199.99871      199.75449      835.58635    
      2800  -162004.27      841.27062     -161163         200.00696      199.74964      835.99858    
      2900  -162006.81      886.80042     -161120.01      199.98244      199.76446      836.41081    
      3000  -162002.78      894.46366     -161108.32      199.94255      199.79678      836.82303    
      3100  -161988.26      859.00699     -161129.26      199.90661      199.82682      837.23526    
      3200  -161992.07      861.64949     -161130.42      199.88298      199.84244      837.64749    
      3300  -161961.77      856.11464     -161105.66      199.8824       199.84528      838.05972    
      3400  -161936.26      863.93317     -161072.33      199.88537      199.82352      838.47195    
      3500  -161935.62      888.14255     -161047.48      199.91011      199.8042       838.88417    
      3600  -161944.56      885.24498     -161059.32      199.91969      199.7735       839.2964     
      3700  -161949.81      866.003       -161083.81      199.9355       199.75048      839.70863    
      3800  -161954.67      863.86661     -161090.81      199.94812      199.73611      840.12086    
      3900  -161940.09      858.72006     -161081.37      199.94452      199.72845      840.53309    
      4000  -161930.55      872.60104     -161057.95      199.93489      199.73489      840.94531    
      4100  -161922.94      883.29795     -161039.64      199.91052      199.74655      841.35754    
      4200  -161909.49      868.04611     -161041.45      199.88763      199.76435      841.76977    
      4300  -161907.45      865.26773     -161042.18      199.86959      199.77357      842.182      
      4400  -161887.53      856.70795     -161030.82      199.86687      199.77776      842.59423    
      4500  -161869.8       869.5023      -161000.3       199.86299      199.76659      843.00646    
      4600  -161861.97      886.80352     -160975.17      199.87114      199.75131      843.41868    
      4700  -161850.34      874.94092     -160975.4       199.8802       199.7318       843.83091    
      4800  -161853.72      868.38472     -160985.34      199.88498      199.71037      844.24314    
      4900  -161854.36      863.0247      -160991.33      199.89916      199.69944      844.65537    
      5000  -161843.01      863.96907     -160979.04      199.89607      199.68998      845.0676     
      5100  -161830.03      874.85436     -160955.18      199.88913      199.69069      845.47982    
      5200  -161814.5       878.76321     -160935.74      199.87542      199.69399      845.89205    
      5300  -161806.39      874.0795      -160932.31      199.85636      199.69882      846.30428    
      5400  -161799.95      867.03483     -160932.92      199.84536      199.70381      846.71651    
      5500  -161787.13      864.54436     -160922.58      199.83869      199.70387      847.12874    
      5600  -161766.35      866.10187     -160900.25      199.83585      199.70025      847.54096    
      5700  -161746.38      870.21597     -160876.17      199.83442      199.68944      847.95319    
      5800  -161742.44      882.63576     -160859.8       199.83664      199.67615      848.36542    
      5900  -161734.47      868.9399      -160865.53      199.83646      199.66091      848.77765    
      6000  -161730.22      862.74327     -160867.48      199.83797      199.6508       849.18988    
      6100  -161724.45      866.23095     -160858.22      199.83796      199.64662      849.6021     
      6200  -161715.88      876.67994     -160839.2       199.82824      199.64235      850.01433    
      6300  -161687.1       870.58863     -160816.52      199.82224      199.64393      850.42656    
      6400  -161683.75      880.38032     -160803.37      199.80745      199.63961      850.83879    
      6500  -161676.26      871.33922     -160804.92      199.79834      199.63796      851.25102    
      6600  -161667.51      869.22861     -160798.28      199.79099      199.6352       851.66325    
      6700  -161642.65      863.03872     -160779.61      199.7855       199.63143      852.07547    
      6800  -161632.77      878.29584     -160754.48      199.7836       199.62679      852.4877     
      6900  -161614.77      877.65374     -160737.11      199.77967      199.61613      852.89993    
      7000  -161599.79      870.70627     -160729.08      199.77884      199.60371      853.31216    
      7100  -161601.84      875.58744     -160726.25      199.7787       199.5907       853.72439    
      7200  -161586.02      866.63642     -160719.38      199.77867      199.57983      854.13661    
      7300  -161568.77      866.04682     -160702.72      199.775        199.57055      854.54884    
      7400  -161548.01      868.73268     -160679.28      199.76987      199.56617      854.96107    
      7500  -161546.48      883.93577     -160662.54      199.75872      199.56283      855.3733     
      7600  -161527.71      870.82339     -160656.89      199.74822      199.56065      855.78553    
      7700  -161512.13      866.61875     -160645.51      199.73873      199.55859      856.19775    
      7800  -161493.33      866.08012     -160627.25      199.72916      199.55494      856.60998    
      7900  -161477.27      870.49994     -160606.77      199.72072      199.55071      857.02221    
      8000  -161465.98      878.5985      -160587.38      199.71415      199.54356      857.43444    
      8100  -161444.85      872.30596     -160572.55      199.7107       199.53392      857.84667    
      8200  -161436.67      866.20228     -160570.46      199.70922      199.52048      858.25889    
      8300  -161430.83      871.84819     -160558.98      199.71005      199.50782      858.67112    
      8400  -161406.16      863.81524     -160542.34      199.70566      199.49555      859.08335    
      8500  -161392.5       875.55909     -160516.95      199.69774      199.48787      859.49558    
      8600  -161378.43      880.27238     -160498.16      199.68935      199.48587      859.90781    
      8700  -161359.96      872.26053     -160487.7       199.67568      199.48338      860.32004    
      8800  -161350.9       868.83176     -160482.07      199.66384      199.4821       860.73226    
      8900  -161330.08      853.83753     -160476.25      199.65409      199.47893      861.14449    
      9000  -161312.28      860.94003     -160451.34      199.64226      199.4719       861.55672    
      9100  -161294.75      871.35102     -160423.4       199.63753      199.46303      861.96895    
      9200  -161275.92      872.96885     -160402.95      199.63422      199.45112      862.38118    
      9300  -161261.05      875.8319      -160385.22      199.6307       199.43675      862.7934     
      9400  -161246.18      873.82412     -160372.36      199.63068      199.42576      863.20563    
      9500  -161221.12      857.09637     -160364.02      199.62348      199.41396      863.61786    
      9600  -161211.96      865.94159     -160346.02      199.61668      199.40575      864.03009    
      9700  -161194.55      876.12827     -160318.42      199.60641      199.40004      864.44232    
      9800  -161162.14      871.59999     -160290.54      199.59244      199.39487      864.85454    
      9900  -161148.92      874.3137      -160274.61      199.58153      199.39172      865.26677    
     10000  -161133.27      870.26906     -160263         199.57029      199.38636      865.679      
     10100  -161113.94      867.22263     -160246.72      199.56147      199.37896      866.09123    
     10200  -161098.56      870.5836      -160227.98      199.55558      199.36896      866.50346    
     10300  -161088.35      871.22376     -160217.12      199.54876      199.35533      866.91568    
     10400  -161071.67      863.49927     -160208.18      199.54623      199.34176      867.32791    
     10500  -161051.15      866.24766     -160184.91      199.54141      199.32642      867.74014    
     10600  -161026.24      868.80161     -160157.44      199.53803      199.31435      868.15237    
     10700  -161000.98      866.32776     -160134.65      199.52984      199.30284      868.5646     
     10800  -160995.18      878.91349     -160116.26      199.52013      199.29559      868.97683    
     10900  -160970.96      866.46688     -160104.5       199.50614      199.29034      869.38905    
     11000  -160950.16      863.71206     -160086.45      199.49113      199.28617      869.80128    
     11100  -160923.6       868.98064     -160054.62      199.47757      199.28136      870.21351    
     11200  -160910.68      877.93754     -160032.74      199.46533      199.27407      870.62574    
     11300  -160883.7       867.05502     -160016.65      199.45688      199.26511      871.03797    
     11400  -160875.94      874.28599     -160001.66      199.45017      199.25197      871.45019    
     11500  -160851.23      863.78314     -159987.45      199.44579      199.23554      871.86242    
     11600  -160833.44      870.43019     -159963.01      199.44186      199.21829      872.27465    
     11700  -160806.66      875.60398     -159931.06      199.43655      199.20269      872.68688    
     11800  -160785.9       875.02141     -159910.88      199.42783      199.19184      873.09911    
     11900  -160770.54      876.80664     -159893.73      199.41582      199.18482      873.51133    
     12000  -160753.33      875.25183     -159878.08      199.40089      199.17983      873.92356    
     12100  -160728.43      868.1653      -159860.27      199.3846       199.17423      874.33579    
     12200  -160702.85      865.82125     -159837.03      199.36997      199.1679       874.74802    
     12300  -160677.69      867.0927      -159810.6       199.35569      199.15972      875.16025    
     12400  -160662.41      874.59135     -159787.82      199.34413      199.1503       875.57247    
     12500  -160639.09      871.98341     -159767.11      199.33429      199.14016      875.9847     
     12600  -160617.29      870.57678     -159746.72      199.32403      199.12735      876.39693    
     12700  -160592.63      867.29074     -159725.34      199.31669      199.11355      876.80916    
     12800  -160573.38      868.04265     -159705.34      199.3086       199.09764      877.22139    
     12900  -160552.87      868.08774     -159684.79      199.30151      199.08309      877.63362    
     13000  -160531.96      871.97198     -159659.99      199.29252      199.0705       878.04584    
     13100  -160503.22      874.10465     -159629.12      199.27753      199.06061      878.45807    
     13200  -160477.5       878.13304     -159599.37      199.26375      199.05567      878.8703     
     13300  -160452.84      872.48973     -159580.35      199.24462      199.04927      879.28253    
     13400  -160431.74      864.10825     -159567.63      199.22915      199.04219      879.69476    
     13500  -160419.9       876.08273     -159543.82      199.2162       199.03205      880.10698    
     13600  -160381.44      864.66081     -159516.78      199.20429      199.01916      880.51921    
     13700  -160355.4       869.78102     -159485.62      199.19547      199.00597      880.93144    
     13800  -160338.85      880.00227     -159458.85      199.18465      198.99238      881.34367    
     13900  -160311.52      866.0767      -159445.44      199.17474      198.97862      881.7559     
     14000  -160289.79      862.10795     -159427.68      199.16435      198.96432      882.16812    
     14100  -160271.9       871.48437     -159400.41      199.15347      198.95118      882.58035    
     14200  -160247.46      875.98467     -159371.47      199.13922      198.93883      882.99258    
     14300  -160212.78      869.62881     -159343.15      199.12396      198.9305       883.40481    
     14400  -160191.47      877.80131     -159313.67      199.10577      198.92298      883.81704    
     14500  -160165.71      878.79313     -159286.92      199.08859      198.91701      884.22926    
     14600  -160147.32      877.74994     -159269.57      199.07186      198.90795      884.64149    
     14700  -160117.71      864.80804     -159252.91      199.05858      198.89607      885.05372    
     14800  -160093.64      866.56993     -159227.07      199.04636      198.88247      885.46595    
     14900  -160066.23      872.1828      -159194.04      199.03377      198.86715      885.87818    
     15000  -160037.71      878.28726     -159159.43      199.02099      198.85465      886.29041    
     15100  -160007.56      882.05292     -159125.51      199.00485      198.84227      886.70263    
     15200  -159977.79      881.02825     -159096.76      198.99176      198.83264      887.11486    
     15300  -159960.78      875.05063     -159085.73      198.97624      198.82016      887.52709    
     15400  -159948.13      877.57888     -159070.55      198.96197      198.80691      887.93932    
     15500  -159911.85      860.38884     -159051.46      198.94745      198.79493      888.35155    
     15600  -159887.75      867.02065     -159020.73      198.93002      198.78294      888.76377    
     15700  -159855.61      869.94988     -158985.66      198.91547      198.77386      889.176      
     15800  -159831.88      873.71897     -158958.17      198.89756      198.76117      889.58823    
     15900  -159803.16      868.62342     -158934.54      198.88404      198.74899      890.00046    
     16000  -159787.23      868.05237     -158919.18      198.8691       198.73398      890.41269    
     16100  -159762.98      866.88518     -158896.09      198.85558      198.71911      890.82491    
     16200  -159726.06      866.74921     -158859.31      198.84205      198.70583      891.23714    
     16300  -159701.03      874.494       -158826.54      198.82514      198.69164      891.64937    
     16400  -159671.87      873.61898     -158798.25      198.81146      198.68146      892.0616     
     16500  -159639.67      867.48887     -158772.18      198.79327      198.66655      892.47383    
     16600  -159618.46      864.82522     -158753.63      198.77955      198.65367      892.88605    
     16700  -159598.54      867.57677     -158730.96      198.76458      198.63759      893.29828    
     16800  -159559.9       865.14276     -158694.76      198.75019      198.62253      893.71051    
     16900  -159532.78      874.52952     -158658.25      198.73599      198.60914      894.12274    
     17000  -159496.56      866.57164     -158629.98      198.71757      198.59525      894.53497    
     17100  -159471.75      865.97546     -158605.77      198.70002      198.58492      894.9472     
     17200  -159452         866.85069     -158585.14      198.6803       198.5728       895.35942    
     17300  -159426.83      872.46987     -158554.36      198.66332      198.56131      895.77165    
     17400  -159384.64      872.14728     -158512.49      198.64661      198.54733      896.18388    
     17500  -159355.67      872.99127     -158482.68      198.63044      198.53354      896.59611    
     17600  -159328.24      869.83915     -158458.4       198.6134       198.51912      897.00834    
     17700  -159306.1       867.86634     -158438.24      198.5965       198.50519      897.42056    
     17800  -159278.66      868.1401      -158410.52      198.57992      198.49225      897.83279    
     17900  -159242.09      862.67018     -158379.42      198.56262      198.47768      898.24502    
     18000  -159216.25      871.84556     -158344.4       198.547        198.46344      898.65725    
     18100  -159180.14      870.02968     -158310.12      198.53024      198.44826      899.06948    
     18200  -159158.95      877.30943     -158281.64      198.51338      198.43499      899.4817     
     18300  -159128.57      871.61427     -158256.96      198.49296      198.42193      899.89393    
     18400  -159100.22      868.40024     -158231.82      198.47395      198.41098      900.30616    
     18500  -159071.04      870.99263     -158200.05      198.45371      198.39982      900.71839    
     18600  -159033.02      876.02536     -158157         198.4342       198.38743      901.13062    
     18700  -158998.14      870.74602     -158127.4       198.41737      198.37442      901.54284    
     18800  -158975.14      869.22017     -158105.92      198.39954      198.35807      901.95507    
     18900  -158947.42      867.59889     -158079.82      198.38463      198.34281      902.3673     
     19000  -158913.33      865.05228     -158048.28      198.36854      198.32632      902.77953    
     19100  -158881.54      871.12726     -158010.41      198.35334      198.30993      903.19176    
     19200  -158852.08      884.8182      -157967.26      198.33782      198.29398      903.60399    
     19300  -158816.64      874.86727     -157941.77      198.32056      198.2773       904.01621    
     19400  -158789.03      868.60658     -157920.43      198.30558      198.26318      904.42844    
     19500  -158760.3       866.61537     -157893.69      198.28613      198.24697      904.84067    
     19600  -158719.87      861.30583     -157858.56      198.26935      198.23368      905.2529     
     19700  -158690.84      872.13839     -157818.7       198.25083      198.22037      905.66513    
     19800  -158661.58      875.93612     -157785.65      198.2299       198.20536      906.07735    
     19900  -158630.93      872.36429     -157758.57      198.21264      198.19315      906.48958    
     20000  -158610.43      878.05462     -157732.37      198.19286      198.1768       906.90181    
     20100  -158569.49      866.54552     -157702.94      198.17903      198.16263      907.31404    
     20200  -158532.42      869.76148     -157662.66      198.16237      198.14407      907.72627    
     20300  -158491.84      869.94855     -157621.89      198.14782      198.12752      908.13849    
     20400  -158468.85      875.3065      -157593.55      198.13161      198.11056      908.55072    
     20500  -158437.74      869.04732     -157568.69      198.1135       198.09319      908.96295    
     20600  -158408.34      867.96195     -157540.38      198.09841      198.07789      909.37518    
     20700  -158372.73      865.69851     -157507.03      198.07981      198.06002      909.78741    
     20800  -158333.17      874.53534     -157458.63      198.06577      198.04602      910.19963    
     20900  -158295.21      871.81812     -157423.4       198.04821      198.0302       910.61186    
     21000  -158268.3       869.00678     -157399.29      198.02941      198.01408      911.02409    
     21100  -158245.86      871.6682      -157374.19      198.01275      197.99946      911.43632    
     21200  -158209.89      866.78327     -157343.11      197.99337      197.98278      911.84855    
     21300  -158168.51      862.80198     -157305.71      197.97793      197.96721      912.26078    
     21400  -158139.6       879.35613     -157260.24      197.96125      197.94984      912.673      
     21500  -158105.27      875.73567     -157229.53      197.94602      197.93419      913.08523    
     21600  -158075.96      872.13852     -157203.82      197.92964      197.91728      913.49746    
     21700  -158041.64      868.40742     -157173.23      197.91256      197.90135      913.90969    
     21800  -158001.63      864.83243     -157136.8       197.89491      197.88523      914.32192    
     21900  -157969.29      874.36672     -157094.92      197.87673      197.8701       914.73414    
     22000  -157930.49      879.82475     -157050.67      197.85898      197.85505      915.14637    
     22100  -157898.97      875.85121     -157023.12      197.84215      197.84151      915.5586     
     22200  -157871.1       875.21669     -156995.88      197.82328      197.82741      915.97083    
     22300  -157833.74      868.48762     -156965.25      197.80507      197.81361      916.38306    
     22400  -157800.98      869.543       -156931.44      197.787        197.79956      916.79528    
     22500  -157762.65      870.96828     -156891.68      197.76884      197.78347      917.20751    
     22600  -157721.93      873.77531     -156848.15      197.75289      197.76813      917.61974    
     22700  -157684.85      867.91405     -156816.94      197.73594      197.75125      918.03197    
     22800  -157660.87      867.08461     -156793.79      197.72174      197.73645      918.4442     
     22900  -157623.62      863.52784     -156760.09      197.7051       197.72063      918.85642    
     23000  -157595.82      873.88143     -156721.94      197.688        197.70506      919.26865    
     23100  -157556.04      871.90433     -156684.13      197.67119      197.69108      919.68088    
     23200  -157518.85      872.47912     -156646.37      197.65218      197.6757       920.09311    
     23300  -157476.24      866.86257     -156609.38      197.63681      197.66249      920.50534    
     23400  -157448.79      871.7506      -156577.04      197.61889      197.64688      920.91757    
     23500  -157414.1       867.00322     -156547.09      197.60251      197.63181      921.32979    
     23600  -157384.87      868.96829     -156515.9       197.58683      197.61698      921.74202    
     23700  -157344.47      867.5764      -156476.89      197.56959      197.60114      922.15425    
     23800  -157299.72      870.53963     -156429.18      197.55495      197.58782      922.56648    
     23900  -157267.86      876.39595     -156391.46      197.53744      197.5721       922.97871    
     24000  -157231.94      870.63992     -156361.3       197.52254      197.55812      923.39093    
     24100  -157204.22      870.39098     -156333.83      197.50616      197.54143      923.80316    
     24200  -157168.81      867.53566     -156301.27      197.49075      197.52528      924.21539    
     24300  -157125.46      873.7695      -156251.69      197.47524      197.50971      924.62762    
     24400  -157079.64      870.68517     -156208.95      197.45834      197.49531      925.03985    
     24500  -157044.94      869.29702     -156175.64      197.44148      197.48329      925.45207    
     24600  -157020.98      873.57065     -156147.41      197.42263      197.47069      925.8643     
     24700  -156982.87      868.64307     -156114.22      197.40521      197.45918      926.27653    
     24800  -156941.26      871.03547     -156070.23      197.38717      197.44591      926.68876    
     24900  -156898.12      875.33113     -156022.79      197.36986      197.43166      927.10099    
     25000  -156860.57      872.07833     -155988.49      197.35433      197.41787      927.51321    
     25100  -156823.77      865.73167     -155958.04      197.33816      197.40313      927.92544    
     25200  -156790.15      867.79746     -155922.35      197.32257      197.38935      928.33767    
     25300  -156748.92      875.97522     -155872.94      197.30708      197.37559      928.7499     
     25400  -156710.2       878.64418     -155831.56      197.29194      197.36158      929.16213    
     25500  -156670.66      869.96762     -155800.69      197.27683      197.34594      929.57436    
     25600  -156633.6       864.11007     -155769.49      197.26278      197.33095      929.98658    
     25700  -156599.72      866.87023     -155732.85      197.24774      197.3143       930.39881    
     25800  -156556.75      865.82438     -155690.93      197.23328      197.29934      930.81104    
     25900  -156513.88      874.82636     -155639.05      197.21771      197.28492      931.22327    
     26000  -156487.17      885.21243     -155601.96      197.20176      197.27155      931.6355     
     26100  -156436.3       864.94153     -155571.36      197.18643      197.25894      932.04772    
     26200  -156411.77      872.9056      -155538.86      197.17067      197.24594      932.45995    
     26300  -156373.16      868.28738     -155504.87      197.15609      197.23327      932.87218    
     26400  -156336.53      869.90617     -155466.63      197.1398       197.21817      933.28441    
     26500  -156291.81      873.18915     -155418.62      197.12625      197.20419      933.69664    
     26600  -156246.36      873.34517     -155373.02      197.11066      197.18852      934.10886    
     26700  -156212.54      875.53317     -155337.01      197.09691      197.17336      934.52109    
     26800  -156181.15      871.56818     -155309.58      197.08314      197.15894      934.93332    
     26900  -156136.48      862.37303     -155274.11      197.06854      197.14382      935.34555    
     27000  -156101.39      869.02834     -155232.36      197.05641      197.13077      935.75778    
     27100  -156053.5       867.10345     -155186.39      197.04228      197.11596      936.17       
     27200  -156015.14      871.59006     -155143.55      197.02934      197.10233      936.58223    
     27300  -155979.46      872.33034     -155107.13      197.01608      197.08892      936.99446    
     27400  -155946.91      867.05049     -155079.86      196.99991      197.0742       937.40669    
     27500  -155907.01      864.44704     -155042.56      196.98557      197.06097      937.81892    
     27600  -155861.99      868.57877     -154993.41      196.96974      197.04707      938.23115    
     27700  -155822.51      873.9073      -154948.6       196.95533      197.03326      938.64337    
     27800  -155785.41      876.49907     -154908.91      196.94186      197.01969      939.0556     
     27900  -155747.61      872.74168     -154874.87      196.92852      197.00579      939.46783    
     28000  -155716.02      869.22066     -154846.8       196.91609      196.99264      939.88006    
     28100  -155671.05      865.73842     -154805.31      196.9026       196.97903      940.29229    
     28200  -155624.88      866.89684     -154757.98      196.88934      196.96504      940.70451    
     28300  -155588.73      874.43004     -154714.3       196.87673      196.95057      941.11674    
     28400  -155543.32      874.67136     -154668.65      196.86371      196.93404      941.52897    
     28500  -155495.26      871.2499      -154624.01      196.85293      196.91832      941.9412     
     28600  -155458.18      870.87402     -154587.31      196.84031      196.90259      942.35343    
     28700  -155424.05      863.18901     -154560.86      196.82698      196.8881       942.76565    
     28800  -155381.74      861.70725     -154520.03      196.81329      196.87637      943.17788    
     28900  -155333.05      861.99385     -154471.06      196.79665      196.86429      943.59011    
     29000  -155296.69      871.22644     -154425.46      196.78254      196.85493      944.00234    
     29100  -155253.3       868.83234     -154384.47      196.76642      196.84336      944.41457    
     29200  -155206.49      860.42026     -154346.07      196.75179      196.83159      944.82679    
     29300  -155176.4       866.5311      -154309.87      196.73799      196.81862      945.23902    
     29400  -155137.48      867.39552     -154270.08      196.72311      196.80365      945.65125    
     29500  -155090.16      868.40298     -154221.76      196.71175      196.79029      946.06348    
     29600  -155049.04      874.61511     -154174.42      196.69805      196.77505      946.47571    
     29700  -155004.64      870.39968     -154134.24      196.68633      196.76149      946.88794    
     29800  -154969.03      865.70937     -154103.32      196.67522      196.74797      947.30016    
     29900  -154932.45      861.28867     -154071.16      196.66297      196.73327      947.71239    
     30000  -154890.76      864.31257     -154026.45      196.65119      196.71954      948.12462    
     30100  -154849.12      870.22523     -153978.9       196.6385       196.70533      948.53685    
     30200  -154797.95      865.8111      -153932.14      196.62468      196.69124      948.94908    
     30300  -154757.11      868.4359      -153888.67      196.61295      196.67859      949.3613     
     30400  -154722.53      875.79545     -153846.73      196.59795      196.6645       949.77353    
     30500  -154679.46      865.71689     -153813.75      196.58551      196.65322      950.18576    
     30600  -154639.68      857.35697     -153782.33      196.5714       196.64115      950.59799    
     30700  -154596.43      862.39176     -153734.03      196.55808      196.62867      951.01022    
     30800  -154550.37      865.26173     -153685.11      196.54658      196.61675      951.42244    
     30900  -154511.12      873.26478     -153637.86      196.53263      196.60162      951.83467    
     31000  -154464.35      871.15785     -153593.19      196.52256      196.58925      952.2469     
     31100  -154431.28      879.83708     -153551.45      196.51044      196.57454      952.65913    
     31200  -154378.4       861.59223     -153516.81      196.49809      196.56001      953.07136    
     31300  -154347.37      864.3745      -153482.99      196.48789      196.54811      953.48358    
     31400  -154294.17      857.7807      -153436.39      196.47353      196.53337      953.89581    
     31500  -154251.99      867.73962     -153384.25      196.46301      196.52174      954.30804    
     31600  -154212.44      873.12713     -153339.31      196.45012      196.50888      954.72027    
     31700  -154169.19      872.2267      -153296.96      196.4363       196.4966       955.1325     
     31800  -154123.07      867.12973     -153255.94      196.42386      196.48639      955.54473    
     31900  -154079.89      863.28636     -153216.6       196.40795      196.47335      955.95695    
     32000  -154044.76      868.44438     -153176.31      196.39515      196.46311      956.36918    
     32100  -153995.14      866.89315     -153128.24      196.38142      196.45073      956.78141    
     32200  -153951.45      874.46631     -153076.99      196.36886      196.43778      957.19364    
     32300  -153912.33      878.4055      -153033.92      196.35822      196.42593      957.60587    
     32400  -153865.22      868.64368     -152996.58      196.34612      196.41196      958.01809    
     32500  -153831.69      863.64358     -152968.05      196.33501      196.39937      958.43032    
     32600  -153784.37      861.25426     -152923.11      196.32331      196.3866       958.84255    
     32700  -153737.19      865.87404     -152871.32      196.31037      196.37349      959.25478    
     32800  -153690.49      867.53035     -152822.96      196.29906      196.36203      959.66701    
     32900  -153650.92      874.47719     -152776.44      196.28579      196.34828      960.07923    
     33000  -153606.48      874.84483     -152731.64      196.2736       196.33574      960.49146    
     33100  -153556.16      866.74801     -152689.41      196.26067      196.32385      960.90369    
     33200  -153513.37      865.67674     -152647.69      196.24557      196.31105      961.31592    
     33300  -153478.02      873.00372     -152605.02      196.23374      196.30174      961.72815    
     33400  -153427.7       865.61333     -152562.08      196.21898      196.28946      962.14037    
     33500  -153381.86      866.82667     -152515.04      196.20625      196.27881      962.5526     
     33600  -153341.34      877.26517     -152464.08      196.19406      196.2682       962.96483    
     33700  -153297.03      878.7338      -152418.29      196.17933      196.25488      963.37706    
     33800  -153251.92      865.87652     -152386.04      196.16842      196.24455      963.78929    
     33900  -153212.57      864.08481     -152348.49      196.1547       196.23103      964.20152    
     34000  -153161.87      861.41873     -152300.45      196.14269      196.21841      964.61374    
     34100  -153120.34      870.35798     -152249.99      196.13105      196.20602      965.02597    
     34200  -153073.37      869.19306     -152204.18      196.11684      196.19199      965.4382     
     34300  -153028.97      868.46483     -152160.51      196.10599      196.18217      965.85043    
     34400  -152990.08      874.47848     -152115.6       196.0909       196.17031      966.26266    
     34500  -152940.54      873.39573     -152067.14      196.07715      196.16         966.67488    
     34600  -152891.1       877.35691     -152013.75      196.06445      196.15019      967.08711    
     34700  -152852.28      878.28195     -151974         196.04993      196.13761      967.49934    
     34800  -152816.33      875.83661     -151940.49      196.03801      196.12672      967.91157    
     34900  -152761.24      862.592       -151898.65      196.025        196.11451      968.3238     
     35000  -152719.99      869.52553     -151850.47      196.01178      196.10234      968.73602    
     35100  -152670.35      874.38628     -151795.97      195.99975      196.09122      969.14825    
     35200  -152621.66      872.03109     -151749.62      195.9862       196.07888      969.56048    
     35300  -152584.37      874.65811     -151709.72      195.97331      196.06706      969.97271    
     35400  -152537.14      867.11562     -151670.02      195.96126      196.05471      970.38494    
     35500  -152487.53      860.22485     -151627.3       195.94899      196.04074      970.79716    
     35600  -152450.77      873.08628     -151577.68      195.9384       196.02797      971.20939    
     35700  -152398.42      876.90768     -151521.51      195.92625      196.01493      971.62162    
     35800  -152359.75      882.05955     -151477.69      195.91395      196.00302      972.03385    
     35900  -152304.08      863.43425     -151440.65      195.90169      195.9929       972.44608    
     36000  -152264.24      865.86755     -151398.37      195.88646      195.98156      972.85831    
     36100  -152221.74      868.48942     -151353.25      195.87356      195.97195      973.27053    
     36200  -152185.59      879.14363     -151306.45      195.85936      195.9599       973.68276    
     36300  -152125.11      871.94334     -151253.17      195.84597      195.94727      974.09499    
     36400  -152073.37      875.11554     -151198.26      195.83407      195.93509      974.50722    
     36500  -152027.44      868.68353     -151158.76      195.82095      195.92172      974.91945    
     36600  -151990.67      870.90921     -151119.77      195.80915      195.91045      975.33167    
     36700  -151945.61      867.98952     -151077.62      195.79583      195.89888      975.7439     
     36800  -151901.77      868.73831     -151033.03      195.78223      195.888        976.15613    
     36900  -151844.63      861.74337     -150982.89      195.76959      195.87756      976.56836    
     37000  -151800.57      872.62348     -150927.95      195.756        195.86533      976.98059    
     37100  -151756.67      871.95046     -150884.72      195.7447       195.85245      977.39281    
     37200  -151722.01      871.90983     -150850.1       195.7335       195.83779      977.80504    
     37300  -151679.53      872.04771     -150807.49      195.72269      195.82258      978.21727    
     37400  -151630.49      871.11976     -150759.37      195.71205      195.80847      978.6295     
     37500  -151579.85      871.57801     -150708.27      195.69893      195.7942       979.04173    
     37600  -151534.58      876.92137     -150657.66      195.68607      195.78259      979.45395    
     37700  -151482.33      870.89817     -150611.44      195.67218      195.77178      979.86618    
     37800  -151443.45      869.76277     -150573.69      195.65727      195.76068      980.27841    
     37900  -151396.09      863.39414     -150532.7       195.64425      195.75094      980.69064    
     38000  -151352.05      869.66236     -150482.39      195.63004      195.73918      981.10287    
     38100  -151297.65      870.37898     -150427.27      195.61726      195.72717      981.5151     
     38200  -151253.74      875.03073     -150378.71      195.60629      195.71532      981.92732    
     38300  -151209.28      872.61406     -150336.66      195.59318      195.70183      982.33955    
     38400  -151168.31      870.64811     -150297.66      195.58065      195.68944      982.75178    
     38500  -151115.88      865.02316     -150250.86      195.56723      195.67688      983.16401    
     38600  -151066.5       879.26221     -150187.23      195.55456      195.66448      983.57624    
     38700  -151018.06      875.65276     -150142.4       195.54208      195.65184      983.98846    
     38800  -150977.04      871.0931      -150105.94      195.52908      195.63834      984.40069    
     38900  -150930.56      864.65547     -150065.91      195.51864      195.6261       984.81292    
     39000  -150889.54      873.04278     -150016.5       195.50623      195.61244      985.22515    
     39100  -150836.16      875.91462     -149960.25      195.49411      195.5999       985.63738    
     39200  -150785.03      872.45942     -149912.57      195.48136      195.58887      986.0496     
     39300  -150740.99      871.20378     -149869.79      195.46668      195.57797      986.46183    
     39400  -150700.39      872.60693     -149827.79      195.45231      195.56833      986.87406    
     39500  -150651.27      868.61144     -149782.65      195.43747      195.5581       987.28629    
     39600  -150601.51      872.30872     -149729.2       195.4225       195.54643      987.69852    
     39700  -150546.68      875.889       -149670.79      195.41001      195.53482      988.11074    
     39800  -150498.85      869.75869     -149629.09      195.3964       195.52092      988.52297    
     39900  -150459.82      868.68618     -149591.14      195.38382      195.50787      988.9352     
     40000  -150417.05      869.96047     -149547.09      195.37112      195.49651      989.34743    
     40100  -150360.01      862.73499     -149497.27      195.35609      195.48537      989.75966    
     40200  -150316.14      877.53523     -149438.61      195.34166      195.47543      990.17189    
     40300  -150264.91      878.0516      -149386.86      195.32687      195.46511      990.58411    
     40400  -150216.75      870.08292     -149346.67      195.31262      195.45492      990.99634    
     40500  -150179.21      873.21525     -149306         195.29831      195.44443      991.40857    
     40600  -150126.38      863.63142     -149262.75      195.28512      195.434        991.8208     
     40700  -150074.18      862.04687     -149212.13      195.27043      195.42264      992.23303    
     40800  -150023.36      870.9557      -149152.41      195.25652      195.41162      992.64525    
     40900  -149980.19      875.36151     -149104.83      195.24279      195.40037      993.05748    
     41000  -149935.31      870.60612     -149064.71      195.22738      195.38782      993.46971    
     41100  -149892.34      868.64443     -149023.69      195.21332      195.3768       993.88194    
     41200  -149844.63      867.27557     -148977.35      195.19864      195.36529      994.29417    
     41300  -149802.94      878.04975     -148924.89      195.18422      195.35376      994.70639    
     41400  -149739.88      875.17704     -148864.7       195.1707       195.34296      995.11862    
     41500  -149687.76      869.12516     -148818.63      195.15632      195.33155      995.53085    
     41600  -149649.24      870.25438     -148778.99      195.14309      195.32033      995.94308    
     41700  -149612.02      875.75444     -148736.27      195.12967      195.30789      996.35531    
     41800  -149556.25      864.86562     -148691.39      195.11624      195.29539      996.76753    
     41900  -149512.43      867.46795     -148644.96      195.10322      195.28306      997.17976    
     42000  -149458.93      868.24498     -148590.68      195.08948      195.27045      997.59199    
     42100  -149407.61      872.69993     -148534.91      195.0756       195.25853      998.00422    
     42200  -149359.35      870.43003     -148488.92      195.06154      195.24719      998.41645    
     42300  -149324.79      872.8198      -148451.97      195.04671      195.23521      998.82868    
     42400  -149272.5       864.4799      -148408.02      195.03331      195.22363      999.2409     
     42500  -149232.28      874.93814     -148357.35      195.01918      195.21191      999.65313    
     42600  -149170.58      866.31731     -148304.26      195.00485      195.20013      1000.0654    
     42700  -149131.76      876.93544     -148254.83      194.99138      195.18853      1000.4776    
     42800  -149079         871.57945     -148207.42      194.97679      195.17641      1000.8898    
     42900  -149034.77      865.09269     -148169.68      194.9634       195.16509      1001.302     
     43000  -148990.19      862.13112     -148128.06      194.94989      195.15349      1001.7143    
     43100  -148936.12      863.98494     -148072.14      194.93559      195.14079      1002.1265    
     43200  -148887.1       872.07133     -148015.03      194.92304      195.12894      1002.5387    
     43300  -148834.74      871.43413     -147963.3       194.90816      195.11599      1002.951     
     43400  -148790.87      875.20858     -147915.66      194.8939       195.10411      1003.3632    
     43500  -148738.34      862.8567      -147875.48      194.87967      195.09233      1003.7754    
     43600  -148702.51      866.23215     -147836.27      194.86474      195.07983      1004.1876    
     43700  -148653.91      869.15523     -147784.76      194.85217      195.06843      1004.5999    
     43800  -148595.62      867.0737      -147728.54      194.83954      195.05564      1005.0121    
     43900  -148549.61      871.33181     -147678.28      194.82737      195.04242      1005.4243    
     44000  -148498.63      868.59944     -147630.03      194.81623      195.02977      1005.8366    
     44100  -148457.22      873.70603     -147583.52      194.80246      195.01576      1006.2488    
     44200  -148406.14      865.31016     -147540.83      194.78946      195.00213      1006.661     
     44300  -148369.81      871.27797     -147498.54      194.77679      194.98897      1007.0732    
     44400  -148312.54      866.6785      -147445.86      194.76182      194.97495      1007.4855    
     44500  -148253.79      868.71835     -147385.07      194.74942      194.96323      1007.8977    
     44600  -148209.44      873.92018     -147335.52      194.7364       194.95017      1008.3099    
     44700  -148159.03      867.28229     -147291.75      194.72246      194.93622      1008.7221    
     44800  -148120.27      869.01664     -147251.25      194.71007      194.92403      1009.1344    
     44900  -148065.32      860.45847     -147204.86      194.69548      194.91045      1009.5466    
     45000  -148016.44      874.62663     -147141.81      194.68186      194.89713      1009.9588    
     45100  -147964.44      875.53384     -147088.9       194.67009      194.88475      1010.3711    
     45200  -147914.28      866.28681     -147047.99      194.65588      194.87099      1010.7833    
     45300  -147870.03      864.10517     -147005.93      194.64371      194.85909      1011.1955    
     45400  -147827.54      870.63055     -146956.91      194.63125      194.84651      1011.6077    
     45500  -147773.12      871.00956     -146902.11      194.61759      194.83353      1012.02      
     45600  -147722.46      880.09177     -146842.37      194.604        194.82175      1012.4322    
     45700  -147671.32      873.69248     -146797.63      194.58856      194.8091       1012.8444    
     45800  -147632.39      874.58693     -146757.81      194.57408      194.79608      1013.2567    
     45900  -147583.35      872.43218     -146710.92      194.56083      194.7826       1013.6689    
     46000  -147536         874.29206     -146661.71      194.54745      194.76822      1014.0811    
     46100  -147489.19      877.45449     -146611.74      194.53551      194.75376      1014.4933    
     46200  -147432.09      872.61056     -146559.48      194.52317      194.73956      1014.9056    
     46300  -147383.08      874.18837     -146508.89      194.50948      194.72599      1015.3178    
     46400  -147337.62      872.3241      -146465.29      194.49595      194.7142       1015.73      
     46500  -147297.49      872.37013     -146425.12      194.48224      194.70191      1016.1423    
     46600  -147247.31      871.66818     -146375.64      194.46807      194.68888      1016.5545    
     46700  -147184.45      866.17405     -146318.28      194.45513      194.67673      1016.9667    
     46800  -147139.8       875.35837     -146264.44      194.44113      194.66367      1017.3789    
     46900  -147092.13      875.20472     -146216.92      194.42734      194.65086      1017.7912    
     47000  -147040.77      868.14508     -146172.62      194.41418      194.63863      1018.2034    
     47100  -146998.31      870.03442     -146128.27      194.39915      194.62455      1018.6156    
     47200  -146943.2       864.02317     -146079.18      194.38673      194.61186      1019.0279    
     47300  -146890.87      869.61969     -146021.25      194.37376      194.59859      1019.4401    
     47400  -146840.26      876.48629     -145963.77      194.35873      194.58405      1019.8523    
     47500  -146794.48      875.04429     -145919.44      194.34671      194.57302      1020.2645    
     47600  -146742.65      864.48189     -145878.17      194.3322       194.55972      1020.6768    
     47700  -146694.82      864.61388     -145830.2       194.31901      194.54696      1021.089     
     47800  -146658.71      877.42293     -145781.28      194.30751      194.53483      1021.5012    
     47900  -146603.25      866.85102     -145736.4       194.29308      194.51996      1021.9134    
     48000  -146558.67      863.27308     -145695.39      194.28217      194.50714      1022.3257    
     48100  -146512.35      867.36258     -145644.98      194.26828      194.49295      1022.7379    
     48200  -146457.14      875.318       -145581.82      194.25288      194.47866      1023.1501    
     48300  -146400.33      870.35524     -145529.98      194.2406       194.46779      1023.5624    
     48400  -146357.32      873.28512     -145484.03      194.22407      194.45454      1023.9746    
     48500  -146307.15      866.86974     -145440.28      194.21064      194.44334      1024.3868    
     48600  -146260.18      864.17193     -145396.01      194.19799      194.43247      1024.799     
     48700  -146207.65      861.18483     -145346.47      194.18226      194.41847      1025.2113    
     48800  -146160.26      875.39282     -145284.87      194.17139      194.40765      1025.6235    
     48900  -146107.49      877.11506     -145230.38      194.15684      194.39306      1026.0357    
     49000  -146063.78      875.67123     -145188.11      194.14293      194.37967      1026.448     
     49100  -146013.72      868.99614     -145144.73      194.13047      194.36823      1026.8602    
     49200  -145963.43      869.05266     -145094.38      194.11422      194.35398      1027.2724    
     49300  -145913.72      874.00522     -145039.71      194.10146      194.34176      1027.6846    
     49400  -145850.44      869.83295     -144980.61      194.08852      194.32916      1028.0969    
     49500  -145803.55      882.05012     -144921.5       194.07291      194.31453      1028.5091    
     49600  -145760.83      876.79908     -144884.03      194.06056      194.30322      1028.9213    
     49700  -145710.16      868.81615     -144841.35      194.04488      194.28982      1029.3336    
     49800  -145661.66      865.23465     -144796.42      194.03054      194.27799      1029.7458    
     49900  -145613.63      863.59488     -144750.03      194.01723      194.26667      1030.158     
     50000  -145574.85      874.50998     -144700.34      194.0011       194.25316      1030.5702    
     50100  -145513.77      869.17004     -144644.6       193.98883      194.24308      1030.9825    
     50200  -145470.12      883.48838     -144586.63      193.97397      194.23007      1031.3947    
     50300  -145412.81      873.97479     -144538.84      193.95986      194.2173       1031.8069    
     50400  -145366.8       866.71002     -144500.09      193.94786      194.20516      1032.2192    
     50500  -145315.73      864.51288     -144451.21      193.93279      194.18982      1032.6314    
     50600  -145270.01      872.66493     -144397.34      193.92104      194.17754      1033.0436    
     50700  -145219.33      878.63862     -144340.69      193.90742      194.16377      1033.4558    
     50800  -145165.26      879.53561     -144285.72      193.89302      194.14973      1033.8681    
     50900  -145117.4       872.7852      -144244.62      193.88133      194.13854      1034.2803    
     51000  -145066.73      865.61398     -144201.11      193.86566      194.12475      1034.6925    
     51100  -145023.09      872.28502     -144150.81      193.85237      194.11296      1035.1047    
     51200  -144967.4       871.15962     -144096.24      193.83869      194.10129      1035.517     
     51300  -144911.64      875.09839     -144036.54      193.82295      194.08759      1035.9292    
     51400  -144861.61      878.85062     -143982.76      193.81066      194.07674      1036.3414    
     51500  -144811.75      866.50535     -143945.25      193.79561      194.06369      1036.7537    
     51600  -144763.09      864.62883     -143898.46      193.78192      194.0514       1037.1659    
     51700  -144714.85      865.50588     -143849.34      193.76881      194.04006      1037.5781    
     51800  -144670.63      869.45877     -143801.17      193.75344      194.02589      1037.9903    
     51900  -144616.85      863.3093      -143753.54      193.74215      194.01358      1038.4026    
     52000  -144565.29      863.92678     -143701.36      193.72899      193.99954      1038.8148    
     52100  -144513.07      872.71765     -143640.36      193.71497      193.9845       1039.227     
     52200  -144464.7       879.60887     -143585.09      193.70334      193.97128      1039.6393    
     52300  -144416.59      872.82422     -143543.76      193.68962      193.95634      1040.0515    
     52400  -144365.78      869.13687     -143496.64      193.6775       193.94342      1040.4637    
     52500  -144315.93      869.46629     -143446.46      193.66513      193.93113      1040.8759    
     52600  -144262.81      866.35681     -143396.45      193.65055      193.91727      1041.2882    
     52700  -144213.33      861.75346     -143351.58      193.63826      193.90533      1041.7004    
     52800  -144173.91      867.38454     -143306.52      193.62392      193.89216      1042.1126    
     52900  -144120.61      867.43276     -143253.18      193.60897      193.8791       1042.5249    
     53000  -144061.75      874.99655     -143186.75      193.59584      193.86693      1042.9371    
     53100  -144007.32      874.75872     -143132.56      193.5809       193.85374      1043.3493    
     53200  -143960.95      871.96648     -143088.99      193.56684      193.84092      1043.7615    
     53300  -143912.4       869.07411     -143043.32      193.55272      193.82736      1044.1738    
     53400  -143864.84      868.95227     -142995.89      193.53916      193.81348      1044.586     
     53500  -143813.4       866.06377     -142947.34      193.52675      193.80028      1044.9982    
     53600  -143772.15      872.05201     -142900.1       193.51315      193.78663      1045.4105    
     53700  -143721.73      863.79186     -142857.94      193.50105      193.7736       1045.8227    
     53800  -143669.92      863.11233     -142806.81      193.48913      193.76065      1046.2349    
     53900  -143607.59      864.36967     -142743.23      193.47593      193.74732      1046.6471    
     54000  -143559.11      873.64345     -142685.46      193.46357      193.73505      1047.0594    
     54100  -143513.66      877.13513     -142636.52      193.44968      193.72097      1047.4716    
     54200  -143461.7       871.19956     -142590.5       193.43665      193.70739      1047.8838    
     54300  -143414.23      871.25214     -142542.98      193.42393      193.69445      1048.296     
     54400  -143360.88      868.77475     -142492.1       193.40908      193.6809       1048.7083    
     54500  -143307.05      868.07025     -142438.98      193.39554      193.66755      1049.1205    
     54600  -143259.77      872.64075     -142387.13      193.38217      193.65381      1049.5327    
     54700  -143212.72      869.63606     -142343.08      193.36899      193.64038      1049.945     
     54800  -143161.09      866.44788     -142294.64      193.3558       193.62783      1050.3572    
     54900  -143096.97      859.74805     -142237.23      193.34101      193.61549      1050.7694    
     55000  -143045.26      868.65237     -142176.61      193.32681      193.60467      1051.1816    
     55100  -142994.96      873.28741     -142121.68      193.31211      193.59334      1051.5939    
     55200  -142957.26      875.42684     -142081.83      193.29833      193.58162      1052.0061    
     55300  -142904.75      871.7829      -142032.97      193.2857       193.56877      1052.4183    
     55400  -142854.17      871.38761     -141982.78      193.27304      193.55419      1052.8306    
     55500  -142802.94      868.62549     -141934.31      193.26157      193.53989      1053.2428    
     55600  -142750.84      864.5388      -141886.3       193.24968      193.52533      1053.655     
     55700  -142703.53      864.91066     -141838.62      193.23666      193.5109       1054.0672    
     55800  -142653.2       864.01653     -141789.18      193.22425      193.49743      1054.4795    
     55900  -142599.73      869.40449     -141730.32      193.21103      193.48403      1054.8917    
     56000  -142543.52      877.14453     -141666.37      193.19742      193.47079      1055.3039    
     56100  -142489.35      875.93713     -141613.41      193.18461      193.45759      1055.7162    
     56200  -142445.04      875.91889     -141569.12      193.17129      193.44417      1056.1284    
     56300  -142387.35      869.60182     -141517.75      193.15855      193.43152      1056.5406    
     56400  -142340.34      872.83471     -141467.5       193.14434      193.41824      1056.9528    
     56500  -142279.25      860.91732     -141418.33      193.13158      193.4061       1057.3651    
     56600  -142240.24      869.68701     -141370.55      193.11809      193.39327      1057.7773    
     56700  -142181.44      861.82522     -141319.61      193.10423      193.37995      1058.1895    
     56800  -142137.63      865.19003     -141272.44      193.09207      193.36841      1058.6017    
     56900  -142088.07      861.46893     -141226.6       193.07696      193.35446      1059.014     
     57000  -142029         863.6521      -141165.34      193.06299      193.34176      1059.4262    
     57100  -141971.78      868.90349     -141102.88      193.04934      193.32912      1059.8384    
     57200  -141920.66      870.98798     -141049.68      193.0347       193.31537      1060.2507    
     57300  -141869.28      867.53481     -141001.75      193.02241      193.30312      1060.6629    
     57400  -141821.23      871.74715     -140949.48      193.00855      193.28921      1061.0751    
     57500  -141768.35      868.66118     -140899.69      192.99574      193.2762       1061.4873    
     57600  -141724.77      873.39581     -140851.38      192.98383      193.26387      1061.8996    
     57700  -141670.43      869.80057     -140800.63      192.96875      193.24905      1062.3118    
     57800  -141615.86      870.01927     -140745.84      192.95747      193.23719      1062.724     
     57900  -141567.31      874.92311     -140692.39      192.94274      193.22334      1063.1363    
     58000  -141510.23      870.41407     -140639.82      192.9295       193.21139      1063.5485    
     58100  -141456.68      869.81315     -140586.87      192.91595      193.19972      1063.9607    
     58200  -141402.97      866.5933      -140536.38      192.90047      193.18651      1064.3729    
     58300  -141354.48      869.04738     -140485.43      192.88818      193.1763       1064.7852    
     58400  -141296.36      861.95583     -140434.41      192.87183      193.16314      1065.1974    
     58500  -141248.13      867.80729     -140380.32      192.85678      193.1511       1065.6096    
     58600  -141198.32      873.12169     -140325.2       192.84347      193.14005      1066.0219    
     58700  -141145.59      872.41722     -140273.18      192.82673      193.12598      1066.4341    
     58800  -141090.43      868.13242     -140222.29      192.81385      193.11472      1066.8463    
     58900  -141041.55      871.95555     -140169.6       192.8003       193.1022       1067.2585    
     59000  -140990.14      875.37185     -140114.77      192.78679      193.08892      1067.6708    
     59100  -140942.95      881.81507     -140061.14      192.77471      193.07735      1068.083     
     59200  -140882.75      872.02071     -140010.73      192.75942      193.06363      1068.4952    
     59300  -140833.83      875.60173     -139958.23      192.74599      193.05175      1068.9075    
     59400  -140775.61      871.23486     -139904.38      192.73197      193.03953      1069.3197    
     59500  -140728.41      878.03182     -139850.38      192.71679      193.02568      1069.7319    
     59600  -140668.85      873.00525     -139795.85      192.70392      193.01386      1070.1441    
     59700  -140616.02      874.02606     -139742         192.68889      193.0002       1070.5564    
     59800  -140562.5       874.58871     -139687.91      192.67572      192.98765      1070.9686    
     59900  -140512.89      877.77437     -139635.11      192.6613       192.97458      1071.3808    
     60000  -140454.63      871.82142     -139582.81      192.64663      192.9619       1071.793     
     60100  -140403.25      873.86298     -139529.39      192.63363      192.95054      1072.2053    
     60200  -140349.25      873.51759     -139475.73      192.61745      192.93705      1072.6175    
     60300  -140297.2       875.32313     -139421.88      192.60387      192.92558      1073.0297    
     60400  -140237.26      868.75928     -139368.5       192.58934      192.91336      1073.442     
     60500  -140185.08      872.29936     -139312.78      192.57473      192.90091      1073.8542    
     60600  -140134.37      875.28249     -139259.09      192.56133      192.88967      1074.2664    
     60700  -140074.39      867.99743     -139206.39      192.54502      192.8765       1074.6786    
     60800  -140019.01      867.40782     -139151.6       192.53096      192.86538      1075.0909    
     60900  -139971.42      873.0277      -139098.4       192.51586      192.85361      1075.5031    
     61000  -139915.21      871.29031     -139043.92      192.50004      192.84065      1075.9153    
     61100  -139861.88      873.34421     -138988.53      192.48686      192.82805      1076.3276    
     61200  -139806.15      871.5121      -138934.64      192.47297      192.8133       1076.7398    
     61300  -139756.73      876.10781     -138880.63      192.46054      192.79989      1077.152     
     61400  -139698.68      873.37037     -138825.31      192.44743      192.78641      1077.5642    
     61500  -139640.87      870.86921     -138770         192.43386      192.7732       1077.9765    
     61600  -139591.5       877.23225     -138714.27      192.42076      192.76101      1078.3887    
     61700  -139529.07      870.54674     -138658.52      192.40569      192.74853      1078.8009    
     61800  -139476.8       873.54636     -138603.26      192.39119      192.73728      1079.2132    
     61900  -139418.16      869.87604     -138548.28      192.37567      192.72552      1079.6254    
     62000  -139364.05      871.43527     -138492.62      192.3604       192.71367      1080.0376    
     62100  -139312.92      877.11765     -138435.81      192.3457       192.70197      1080.4498    
     62200  -139247.72      867.72428     -138379.99      192.33072      192.68933      1080.8621    
     62300  -139200.41      876.86677     -138323.54      192.31686      192.67625      1081.2743    
     62400  -139137.94      870.32863     -138267.61      192.3032       192.66295      1081.6865    
     62500  -139085.01      873.39259     -138211.61      192.28941      192.64932      1082.0988    
     62600  -139032.03      877.03341     -138155         192.27648      192.63609      1082.511     
     62700  -138968.64      870.87134     -138097.77      192.26308      192.62245      1082.9232    
     62800  -138910.47      869.7025      -138040.76      192.24987      192.60944      1083.3354    
     62900  -138855.07      871.40964     -137983.66      192.2355       192.59653      1083.7477    
     63000  -138801.42      874.50612     -137926.91      192.22145      192.58474      1084.1599    
     63100  -138742.57      873.02468     -137869.54      192.20643      192.57239      1084.5721    
     63200  -138680.94      869.76212     -137811.17      192.19184      192.56054      1084.9843    
     63300  -138629.79      876.24973     -137753.54      192.17763      192.5484       1085.3966    
     63400  -138568.89      873.71471     -137695.17      192.16255      192.53508      1085.8088    
     63500  -138508.26      871.77003     -137636.49      192.14895      192.52257      1086.221     
     63600  -138452.76      874.83943     -137577.92      192.13433      192.50912      1086.6333    
     63700  -138398.66      880.23883     -137518.42      192.11985      192.49604      1087.0455    
     63800  -138331.65      871.86534     -137459.78      192.10598      192.48391      1087.4577    
     63900  -138273.11      871.99602     -137401.12      192.09044      192.47067      1087.8699    
     64000  -138218.92      877.3361      -137341.58      192.07669      192.45946      1088.2822    
     64100  -138151.38      868.88982     -137282.49      192.06169      192.4472       1088.6944    
     64200  -138097.96      875.74364     -137222.22      192.04704      192.43475      1089.1066    
     64300  -138041.6       879.49552     -137162.11      192.03382      192.42301      1089.5189    
     64400  -137974.44      871.83825     -137102.6       192.01902      192.4094       1089.9311    
     64500  -137918.65      877.35836     -137041.29      192.00534      192.39667      1090.3433    
     64600  -137851.45      870.11562     -136981.33      191.99096      192.3835       1090.7555    
     64700  -137796.16      874.55197     -136921.61      191.97633      192.37052      1091.1678    
     64800  -137742.37      880.274       -136862.1       191.96161      192.35809      1091.58      
     64900  -137674.05      872.87929     -136801.17      191.94567      192.34499      1091.9922    
     65000  -137613.04      873.90251     -136739.14      191.93148      192.33348      1092.4045    
     65100  -137549.26      871.76153     -136677.5       191.91571      192.32054      1092.8167    
     65200  -137495.96      882.52648     -136613.43      191.901        192.30846      1093.2289    
     65300  -137425.01      874.22314     -136550.79      191.8871       192.29634      1093.6411    
     65400  -137366.2       877.60154     -136488.6       191.87205      192.28283      1094.0534    
     65500  -137302.48      875.62128     -136426.86      191.85886      192.27097      1094.4656    
     65600  -137242.17      876.85599     -136365.31      191.84373      192.25799      1094.8778    
     65700  -137177.47      875.8918      -136301.58      191.82987      192.2464       1095.29      
     65800  -137112.93      874.06519     -136238.86      191.81485      192.23349      1095.7023    
     65900  -137045.7       869.74189     -136175.96      191.80031      192.22032      1096.1145    
     66000  -136981.14      869.82426     -136111.31      191.78665      192.20725      1096.5267    
     66100  -136917.33      870.80307     -136046.52      191.77213      192.19293      1096.939     
     66200  -136856.38      873.98681     -135982.39      191.75873      192.17955      1097.3512    
     66300  -136794.43      876.15546     -135918.28      191.74438      192.16617      1097.7634    
     66400  -136728.03      875.24395     -135852.78      191.72971      192.15299      1098.1756    
     66500  -136657.59      869.79285     -135787.79      191.71599      192.14058      1098.5879    
     66600  -136599.68      876.59533     -135723.08      191.70099      192.12727      1099.0001    
     66700  -136536.04      878.38949     -135657.65      191.68723      192.11513      1099.4123    
     66800  -136459.04      869.01461     -135590.03      191.67244      192.10214      1099.8246    
     66900  -136400.75      877.15739     -135523.59      191.65827      192.08946      1100.2368    
     67000  -136336.98      878.62055     -135458.36      191.64443      192.0768       1100.649     
     67100  -136265.46      872.72325     -135392.74      191.6304       192.06351      1101.0612    
     67200  -136202.45      876.24167     -135326.21      191.61704      192.04975      1101.4735    
     67300  -136131.36      870.92714     -135260.44      191.60316      192.03504      1101.8857    
     67400  -136067.93      876.14134     -135191.79      191.59017      192.02094      1102.2979    
     67500  -135993.54      869.28714     -135124.25      191.57658      192.00617      1102.7102    
     67600  -135931.94      876.93413     -135055.01      191.56337      191.99186      1103.1224    
     67700  -135861.73      875.23235     -134986.5       191.55039      191.97812      1103.5346    
     67800  -135794.35      876.03749     -134918.32      191.5361       191.96439      1103.9468    
     67900  -135722.45      873.43302     -134849.02      191.52296      191.95222      1104.3591    
     68000  -135653.65      873.33709     -134780.31      191.50793      191.93836      1104.7713    
     68100  -135584.91      874.42114     -134710.49      191.49412      191.92526      1105.1835    
     68200  -135515.57      876.27707     -134639.29      191.48022      191.91141      1105.5958    
     68300  -135444.37      875.02835     -134569.34      191.46645      191.89697      1106.008     
     68400  -135379.1       879.13372     -134499.97      191.45369      191.88308      1106.4202    
     68500  -135305.35      876.72732     -134428.62      191.43993      191.8688       1106.8324    
     68600  -135236.96      879.17099     -134357.79      191.42678      191.85585      1107.2447    
     68700  -135162.14      876.04128     -134286.1       191.41231      191.84208      1107.6569    
     68800  -135097.59      883.12192     -134214.47      191.39871      191.82901      1108.0691    
     68900  -135028.47      886.55752     -134141.91      191.38485      191.81554      1108.4813    
     69000  -134949.54      882.26713     -134067.27      191.37043      191.80176      1108.8936    
     69100  -134877.19      882.15804     -133995.03      191.35678      191.78845      1109.3058    
     69200  -134801.93      878.72564     -133923.2       191.3429       191.77484      1109.718     
     69300  -134728.19      876.8686      -133851.32      191.3291       191.76123      1110.1303    
     69400  -134659.73      880.13648     -133779.59      191.31549      191.74808      1110.5425    
     69500  -134587.86      882.59532     -133705.27      191.30107      191.73421      1110.9547    
     69600  -134514.79      884.0278      -133630.76      191.28804      191.72137      1111.3669    
     69700  -134445.2       890.43393     -133554.76      191.27397      191.70778      1111.7792    
     69800  -134370.67      889.5477      -133481.12      191.26003      191.69429      1112.1914    
     69900  -134293.69      886.72666     -133406.97      191.24636      191.68115      1112.6036    
     70000  -134217.92      887.42457     -133330.5       191.2313       191.66691      1113.0159    
     70100  -134133.49      879.51109     -133253.98      191.21785      191.65471      1113.4281    
     70200  -134058.72      882.84907     -133175.87      191.20287      191.64157      1113.8403    
     70300  -133984.47      885.18195     -133099.29      191.18846      191.62959      1114.2525    
     70400  -133905.58      886.91333     -133018.67      191.17354      191.61747      1114.6648    
     70500  -133824.18      882.74406     -132941.43      191.15845      191.60476      1115.077     
     70600  -133746.89      883.57563     -132863.31      191.14432      191.59251      1115.4892    
     70700  -133668.84      884.89024     -132783.95      191.12944      191.57917      1115.9015    
     70800  -133599.72      891.65356     -132708.07      191.11506      191.56658      1116.3137    
     70900  -133520.78      889.37408     -132631.41      191.09972      191.55373      1116.7259    
     71000  -133437.75      885.00102     -132552.75      191.08459      191.54126      1117.1381    
     71100  -133366.41      891.2925      -132475.12      191.07002      191.5291       1117.5504    
     71200  -133284.67      887.99482     -132396.68      191.05582      191.51672      1117.9626    
     71300  -133206.16      888.84648     -132317.32      191.04149      191.50402      1118.3748    
     71400  -133120.24      885.6778      -132234.56      191.02723      191.491        1118.7871    
     71500  -133042.42      888.82865     -132153.59      191.01281      191.47769      1119.1993    
     71600  -132966.4       892.71671     -132073.69      190.99833      191.46489      1119.6115    
     71700  -132884.34      892.03388     -131992.31      190.98301      191.45224      1120.0237    
     71800  -132804.98      896.56873     -131908.41      190.96756      191.43994      1120.436     
     71900  -132721.88      895.69024     -131826.19      190.95255      191.42819      1120.8482    
     72000  -132644.97      905.24764     -131739.73      190.93689      191.41597      1121.2604    
     72100  -132552.71      900.6725      -131652.03      190.92224      191.40442      1121.6726    
     72200  -132470.07      899.68637     -131570.38      190.90733      191.392        1122.0849    
     72300  -132385.84      898.77223     -131487.07      190.89254      191.37919      1122.4971    
     72400  -132310.03      905.1617      -131404.87      190.878        191.36715      1122.9093    
     72500  -132227.19      908.53429     -131318.65      190.86264      191.3542       1123.3216    
     72600  -132139.94      905.90885     -131234.03      190.84774      191.34151      1123.7338    
     72700  -132055.55      908.17119     -131147.37      190.83323      191.32914      1124.146     
[...]
    140200  -161445.73      855.97783     -160589.75      195.03236      194.48384      1402.4       
    140300  -161442.78      863.70759     -160579.07      195.02963      194.38734      1402.8122    
    140400  -161437.62      877.1789      -160560.44      195.02225      194.28497      1403.2244    
    140500  -161429.37      874.8502      -160554.52      195.0139       194.18034      1403.6367    
    140600  -161443.1       876.39611     -160566.7       195.00483      194.07144      1404.0489    
    140700  -161447.23      864.39271     -160582.84      194.99636      193.96424      1404.4611    
    140800  -161447.29      860.10238     -160587.19      194.98816      193.86297      1404.8733    
    140900  -161440.09      863.50684     -160576.59      194.98124      193.76569      1405.2856    
    141000  -161435.67      873.41016     -160562.26      194.97729      193.67251      1405.6978    
    141100  -161436.82      876.8531      -160559.97      194.97509      193.58615      1406.11      
    141200  -161445.45      873.588       -160571.86      194.97343      193.50923      1406.5223    
    141300  -161449.83      862.71102     -160587.12      194.97274      193.43772      1406.9345    
    141400  -161448.98      858.31288     -160590.67      194.97702      193.37543      1407.3467    
    141500  -161441.61      864.25474     -160577.36      194.98211      193.32131      1407.7589    
    141600  -161438.29      878.69932     -160559.59      194.98651      193.27437      1408.1712    
    141700  -161437.99      881.50509     -160556.49      194.99183      193.23057      1408.5834    
    141800  -161439.15      868.84889     -160570.3       194.99944      193.18899      1408.9956    
    141900  -161450.15      865.80713     -160584.35      195.00354      193.15163      1409.4079    
    142000  -161447.83      865.44305     -160582.38      195.00605      193.11318      1409.8201    
    142100  -161437.87      870.66942     -160567.2       195.01013      193.07404      1410.2323    
    142200  -161437.17      882.6033      -160554.56      195.01291      193.03648      1410.6445    
    142300  -161437.11      877.74692     -160559.36      195.01339      193.00261      1411.0568    
    142400  -161445.26      868.40447     -160576.85      195.01407      192.96917      1411.469     
    142500  -161444.75      857.09553     -160587.66      195.01726      192.93559      1411.8812    
    142600  -161440.4       861.67098     -160578.73      195.01921      192.90688      1412.2935    
    142700  -161434.29      875.14056     -160559.15      195.02009      192.88243      1412.7057    
    142800  -161430.57      882.18909     -160548.38      195.02344      192.86094      1413.1179    
    142900  -161426.68      870.15406     -160556.53      195.02381      192.84237      1413.5301    
    143000  -161437.37      865.62758     -160571.74      195.02488      192.82901      1413.9424    
    143100  -161437.92      860.50889     -160577.41      195.02348      192.81579      1414.3546    
    143200  -161436.32      867.29085     -160569.03      195.02398      192.80147      1414.7668    
    143300  -161429.41      874.35974     -160555.05      195.02387      192.78831      1415.1791    
    143400  -161431.2       883.24444     -160547.96      195.02185      192.77418      1415.5913    
    143500  -161432.2       876.73263     -160555.47      195.01996      192.75634      1416.0035    
    143600  -161430.53      863.40341     -160567.13      195.01652      192.73816      1416.4157    
    143700  -161433.12      861.33377     -160571.79      195.01311      192.71954      1416.828     
    143800  -161429.99      868.44017     -160561.55      195.00742      192.69554      1417.2402    
    143900  -161421.6       875.74269     -160545.86      195.00347      192.6689       1417.6524    
    144000  -161428.05      888.04804     -160540.01      194.99786      192.63935      1418.0646    
    144100  -161430.04      873.69468     -160556.35      194.9908       192.60792      1418.4769    
    144200  -161444.46      866.00715     -160578.45      194.98403      192.57129      1418.8891    
    144300  -161443.71      855.98077     -160587.73      194.97765      192.5328       1419.3013    
    144400  -161439.95      864.44746     -160575.5       194.97305      192.49774      1419.7136    
    144500  -161430.84      875.23502     -160555.6       194.96418      192.46105      1420.1258    
    144600  -161430.72      881.00363     -160549.72      194.96278      192.42433      1420.538     
    144700  -161436.17      875.91494     -160560.26      194.96247      192.3852       1420.9502    
    144800  -161444.45      863.69539     -160580.76      194.96365      192.35185      1421.3625    
    144900  -161448.61      856.16184     -160592.45      194.96794      192.31963      1421.7747    
    145000  -161448.69      862.40155     -160586.29      194.97537      192.28509      1422.1869    
    145100  -161440.55      872.24667     -160568.3       194.98539      192.25478      1422.5992    
    145200  -161434.18      876.30532     -160557.87      194.99206      192.22789      1423.0114    
    145300  -161442.46      877.84492     -160564.62      195.00213      192.1992       1423.4236    
    145400  -161447.27      866.06606     -160581.2       195.01435      192.17231      1423.8358    
    145500  -161446.79      855.69179     -160591.1       195.02298      192.15272      1424.2481    
    145600  -161454.24      870.50257     -160583.74      195.02882      192.13988      1424.6603    
    145700  -161442.34      877.03898     -160565.3       195.03384      192.12643      1425.0725    
    145800  -161440.61      885.65316     -160554.96      195.04244      192.11922      1425.4848    
    145900  -161431.61      868.83277     -160562.77      195.0474       192.11842      1425.897     
    146000  -161442.3       863.46984     -160578.83      195.0571       192.12451      1426.3092    
    146100  -161450.75      862.29232     -160588.46      195.06694      192.13257      1426.7214    
    146200  -161446.97      863.1084      -160583.87      195.07879      192.14977      1427.1337    
    146300  -161441.25      871.76584     -160569.48      195.091        192.17368      1427.5459    
    146400  -161437.79      877.90198     -160559.89      195.10656      192.19924      1427.9581    
    146500  -161440.76      878.07236     -160562.69      195.12764      192.22915      1428.3704    
    146600  -161448.49      872.50319     -160575.99      195.14944      192.26505      1428.7826    
    146700  -161448.97      862.55118     -160586.42      195.17325      192.30495      1429.1948    
    146800  -161443.2       860.14097     -160583.05      195.19752      192.34007      1429.607     
    146900  -161442.65      871.76663     -160570.89      195.22493      192.37701      1430.0193    
    147000  -161445.67      882.94796     -160562.72      195.24809      192.41204      1430.4315    
    147100  -161438.24      871.00902     -160567.23      195.27275      192.44294      1430.8437    
    147200  -161444.4       866.35559     -160578.04      195.29721      192.46633      1431.2559    
    147300  -161444.26      859.1502      -160585.11      195.32158      192.48636      1431.6682    
    147400  -161439.17      859.24526     -160579.92      195.34216      192.49962      1432.0804    
    147500  -161434.85      870.1636      -160564.69      195.36185      192.506        1432.4926    
    147600  -161441.15      887.33713     -160553.81      195.38511      192.50805      1432.9049    
    147700  -161434.94      873.86813     -160561.07      195.40647      192.50394      1433.3171    
    147800  -161438.2       860.24859     -160577.95      195.42786      192.49652      1433.7293    
    147900  -161450.81      865.0145      -160585.8       195.44805      192.48524      1434.1415    
    148000  -161437.71      859.24199     -160578.47      195.46825      192.47155      1434.5538    
    148100  -161441.64      877.77789     -160563.86      195.48579      192.45883      1434.966     
    148200  -161441.49      883.98006     -160557.51      195.49918      192.44337      1435.3782    
    148300  -161437.46      871.99121     -160565.47      195.51561      192.42542      1435.7905    
    148400  -161438.25      857.82348     -160580.42      195.5328       192.40575      1436.2027    
    148500  -161450.23      861.96585     -160588.27      195.5471       192.38881      1436.6149    
    148600  -161459.19      877.07232     -160582.12      195.55933      192.37205      1437.0271    
    148700  -161443.3       872.90109     -160570.4       195.57115      192.3503       1437.4394    
    148800  -161438.41      874.55442     -160563.85      195.58176      192.33012      1437.8516    
    148900  -161448.79      879.64293     -160569.14      195.5873       192.3073       1438.2638    
    149000  -161448.98      865.43761     -160583.54      195.59412      192.28155      1438.6761    
    149100  -161458.59      865.87731     -160592.71      195.59674      192.25196      1439.0883    
    149200  -161455.66      865.00761     -160590.66      195.59919      192.22382      1439.5005    
    149300  -161454.73      873.5157      -160581.21      195.59954      192.19048      1439.9127    
    149400  -161448.15      873.90612     -160574.24      195.59871      192.15416      1440.325     
    149500  -161447.76      871.69763     -160576.07      195.59989      192.11774      1440.7372    
    149600  -161457.99      870.78069     -160587.21      195.60035      192.07799      1441.1494    
    149700  -161467.61      868.25969     -160599.35      195.6036       192.03605      1441.5616    
    149800  -161466.64      865.66552     -160600.98      195.60552      191.98949      1441.9739    
    149900  -161456.03      864.94224     -160591.09      195.61263      191.94604      1442.3861    
    150000  -161456.39      876.94013     -160579.45      195.61785      191.90316      1442.7983    
    150100  -161456.15      878.08877     -160578.06      195.62348      191.86122      1443.2106    
    150200  -161458.34      872.37559     -160585.97      195.62768      191.81982      1443.6228    
    150300  -161463.15      866.81436     -160596.33      195.63055      191.78498      1444.035     
    150400  -161457.67      859.05238     -160598.61      195.63291      191.75429      1444.4472    
    150500  -161458.35      867.59209     -160590.76      195.63684      191.72492      1444.8595    
    150600  -161453.32      873.91148     -160579.4       195.64063      191.69951      1445.2717    
    150700  -161452.32      875.35707     -160576.96      195.64536      191.67973      1445.6839    
    150800  -161458.97      872.61808     -160586.35      195.65013      191.66447      1446.0962    
    150900  -161461.17      862.19951     -160598.97      195.65665      191.65046      1446.5084    
    151000  -161468.17      865.97184     -160602.2       195.66336      191.6373       1446.9206    
    151100  -161457.74      864.42164     -160593.32      195.67315      191.63066      1447.3328    
    151200  -161455.75      874.3601      -160581.39      195.68195      191.6251       1447.7451    
    151300  -161454.31      876.79739     -160577.51      195.69192      191.61656      1448.1573    
    151400  -161457.66      872.69335     -160584.96      195.70276      191.6078       1448.5695    
    151500  -161469.23      871.17135     -160598.06      195.71288      191.60226      1448.9818    
    151600  -161470.94      864.79034     -160606.15      195.72508      191.59993      1449.394     
    151700  -161462.38      860.66133     -160601.72      195.73631      191.59337      1449.8062    
    151800  -161458.72      870.17648     -160588.55      195.75274      191.58986      1450.2184    
    151900  -161459.27      878.57021     -160580.7       195.76693      191.58809      1450.6307    
    152000  -161461.97      875.06879     -160586.9       195.7815       191.58845      1451.0429    
    152100  -161466.36      868.6069      -160597.75      195.79684      191.58866      1451.4551    
    152200  -161476.35      871.08239     -160605.27      195.81403      191.59101      1451.8674    
    152300  -161475.43      872.41564     -160603.01      195.8315       191.59554      1452.2796    
    152400  -161465.34      870.64268     -160594.7       195.84857      191.59707      1452.6918    
    152500  -161461.65      872.2126      -160589.44      195.86768      191.59848      1453.104     
    152600  -161474.04      883.63512     -160590.41      195.88595      191.60091      1453.5163    
    152700  -161469.04      869.15837     -160599.88      195.90432      191.60409      1453.9285    
    152800  -161470.54      860.37088     -160610.17      195.92491      191.6075       1454.3407    
    152900  -161472.18      862.98962     -160609.19      195.94448      191.60801      1454.7529    
    153000  -161471.76      874.46605     -160597.29      195.96481      191.61083      1455.1652    
    153100  -161469.04      881.03806     -160588.01      195.98417      191.61576      1455.5774    
    153200  -161466.63      874.39023     -160592.24      196.00613      191.62387      1455.9896    
    153300  -161474.15      867.95515     -160606.2       196.02728      191.63239      1456.4019    
    153400  -161478.45      862.05071     -160616.4       196.04625      191.64199      1456.8141    
    153500  -161475.8       860.14168     -160615.65      196.06388      191.65387      1457.2263    
    153600  -161478.77      874.78666     -160603.98      196.07893      191.66528      1457.6385    
    153700  -161475.9       879.63447     -160596.26      196.09429      191.67726      1458.0508    
    153800  -161474.19      872.46886     -160601.72      196.10745      191.68646      1458.463     
    153900  -161486.43      873.53768     -160612.89      196.12416      191.69614      1458.8752    
    154000  -161486.76      867.79443     -160618.97      196.1384       191.70188      1459.2875    
    154100  -161481.59      863.71109     -160617.87      196.15441      191.70747      1459.6997    
    154200  -161479.83      867.84706     -160611.98      196.17131      191.71336      1460.1119    
    154300  -161480.52      873.91719     -160606.61      196.19181      191.71907      1460.5241    
    154400  -161482.94      872.47308     -160610.46      196.21563      191.72489      1460.9364    
    154500  -161488.7       867.68795     -160621.01      196.23834      191.73147      1461.3486    
    154600  -161494.4       863.88659     -160630.51      196.26492      191.74011      1461.7608    
    154700  -161497.21      866.80881     -160630.4       196.29132      191.74363      1462.1731    
    154800  -161496.85      875.72218     -160621.12      196.32026      191.7492       1462.5853    
    154900  -161484.73      871.7781      -160612.95      196.34777      191.75573      1462.9975    
    155000  -161491.13      873.34314     -160617.79      196.37493      191.76273      1463.4097    
    155100  -161501.46      868.29319     -160633.17      196.40001      191.76945      1463.822     
    155200  -161509.98      864.43363     -160645.55      196.42251      191.77847      1464.2342    
    155300  -161513.12      870.00099     -160643.12      196.4448       191.78826      1464.6464    
    155400  -161504.27      873.64936     -160630.62      196.46873      191.79715      1465.0587    
    155500  -161500.89      877.63916     -160623.25      196.4929       191.80665      1465.4709    
    155600  -161514.57      885.4623      -160629.11      196.51583      191.82138      1465.8831    
    155700  -161510.41      866.80859     -160643.61      196.54113      191.83967      1466.2953    
    155800  -161511.43      860.34094     -160651.09      196.56915      191.86019      1466.7076    
    155900  -161515.71      869.1287      -160646.58      196.59668      191.88494      1467.1198    
    156000  -161513.29      877.79775     -160635.49      196.62292      191.9132       1467.532     
    156100  -161501.76      871.77843     -160629.98      196.65365      191.94362      1467.9442    
    156200  -161507.12      871.32591     -160635.79      196.68613      191.97166      1468.3565    
    156300  -161513.06      866.46698     -160646.59      196.72085      192.00177      1468.7687    
    156400  -161518.07      864.37812     -160653.7       196.75763      192.03487      1469.1809    
    156500  -161516.29      865.24144     -160651.05      196.79528      192.06511      1469.5932    
    156600  -161512.85      871.36986     -160641.48      196.83242      192.09439      1470.0054    
    156700  -161514.8       878.09926     -160636.7       196.86633      192.12375      1470.4176    
    156800  -161515.91      872.15026     -160643.76      196.8997       192.15525      1470.8298    
    156900  -161523.91      869.12557     -160654.79      196.93003      192.18207      1471.2421    
    157000  -161528.86      867.77598     -160661.08      196.95904      192.20841      1471.6543    
    157100  -161520.37      865.44594     -160654.92      196.98446      192.23421      1472.0665    
    157200  -161522.62      880.23195     -160642.38      197.00924      192.25996      1472.4788    
    157300  -161515.69      877.53985     -160638.15      197.0325       192.28376      1472.891     
    157400  -161518.1       870.30017     -160647.8       197.05285      192.30597      1473.3032    
    157500  -161529.08      867.14278     -160661.93      197.07328      192.33137      1473.7154    
    157600  -161534.87      867.09601     -160667.77      197.09091      192.35452      1474.1277    
    157700  -161526.82      866.46902     -160660.35      197.1086       192.37742      1474.5399    
    157800  -161524.38      876.41326     -160647.97      197.12597      192.40181      1474.9521    
    157900  -161521.66      876.97371     -160644.68      197.14172      192.42593      1475.3644    
    158000  -161529.77      875.6046      -160654.17      197.15859      192.45029      1475.7766    
    158100  -161531.38      865.76247     -160665.61      197.17547      192.47258      1476.1888    
    158200  -161530.28      861.73388     -160668.55      197.19383      192.49748      1476.601     
    158300  -161535.01      874.45786     -160660.55      197.20848      192.52221      1477.0133    
    158400  -161525.4       873.33391     -160652.07      197.22038      192.54556      1477.4255    
    158500  -161526.48      875.14406     -160651.34      197.2302       192.5692       1477.8377    
    158600  -161531.93      871.70982     -160660.22      197.23931      192.59208      1478.25      
    158700  -161532.78      861.98209     -160670.8       197.24844      192.61407      1478.6622    
    158800  -161539.31      866.31371     -160673         197.25736      192.63379      1479.0744    
    158900  -161531.1       865.56675     -160665.54      197.26693      192.65282      1479.4866    
    159000  -161532.99      876.68201     -160656.31      197.27705      192.67133      1479.8989    
    159100  -161528.91      873.42826     -160655.48      197.28842      192.68988      1480.3111    
    159200  -161537.18      871.70287     -160665.48      197.30045      192.70759      1480.7233    
    159300  -161549.18      872.44493     -160676.74      197.31066      192.72385      1481.1355    
    159400  -161539.4       861.61745     -160677.78      197.31578      192.73952      1481.5478    
    159500  -161542.96      874.95955     -160668         197.31509      192.75386      1481.96      
    159600  -161532.85      874.01178     -160658.84      197.31281      192.76749      1482.3722    
    159700  -161535.16      874.28328     -160660.87      197.30651      192.78006      1482.7845    
