LAMMPS (2 Aug 2023 - Update 3)
OMP_NUM_THREADS environment is not set. Defaulting to 1 thread. (src/comm.cpp:98)
  using 1 OpenMP thread(s) per MPI task
Reading data file ...
  orthogonal box = (-100 -100 -2.3312515) to (100 100 46.166171)
  3 by 4 by 1 MPI processor grid
  reading atoms ...
  1480 atoms
  read_data CPU = 0.006 seconds
Replication is creating a 1x1x9 = 9 times larger system...
  orthogonal box = (-100 -100 -2.3312515) to (100 100 434.14556)
  2 by 2 by 3 MPI processor grid
  13320 atoms
  replicate CPU = 0.001 seconds
3240 atoms in group SR
Deleted 3240 atoms, new total = 10080
System init for write_data ...
WARNING: Communication cutoff is 0.0. No ghost atoms will be generated. Atoms may get lost. (src/comm_brick.cpp:210)
Reading airebo potential file CH.airebo with DATE: 2011-10-25
Reading airebo potential file CH.airebo with DATE: 2011-10-25
Reading airebo potential file CH.airebo with DATE: 2011-10-25
Neighbor list info ...
  update: every = 1 steps, delay = 0 steps, check = yes
  max neighbors/atom: 2000, page size: 100000
  master list distance cutoff = 13.2
  ghost atom cutoff = 13.2
  binsize = 6.6, bins = 31 31 67
  6 neighbor lists, perpetual/occasional/extra = 6 0 0
  (1) pair airebo, perpetual, skip from (5)
      attributes: full, newton on, ghost
      pair build: skip/ghost
      stencil: none
      bin: none
  (2) pair airebo, perpetual, skip from (5)
      attributes: full, newton on, ghost
      pair build: skip/ghost
      stencil: none
      bin: none
  (3) pair airebo, perpetual, skip from (5)
      attributes: full, newton on, ghost
      pair build: skip/ghost
      stencil: none
      bin: none
  (4) pair lj/cut, perpetual, skip from (6)
      attributes: half, newton on, cut 13
      pair build: skip
      stencil: none
      bin: none
  (5) neighbor class addition, perpetual
      attributes: full, newton on, ghost
      pair build: full/bin/ghost
      stencil: full/ghost/bin/3d
      bin: standard
  (6) neighbor class addition, perpetual
      attributes: half, newton on, cut 13
      pair build: half/bin/atomonly/newton
      stencil: half/bin/3d
      bin: standard
Setting up sd style minimization ...
  Unit style    : metal
  Current step  : 0
Per MPI rank memory allocation (min/avg/max) = 11.77 | 12.06 | 12.53 Mbytes
   Step          Temp          E_pair         E_mol          TotEng         Press     
         0   0             -74718.857      0             -74718.857     -48.029154    
         1   0             -74718.964      0             -74718.964     -47.94229     
Loop time of 0.0428727 on 12 procs for 1 steps with 10080 atoms

93.4% CPU use with 12 MPI tasks x 1 OpenMP threads

Minimization stats:
  Stopping criterion = energy tolerance
  Energy initial, next-to-last, final = 
     -74718.8569136206  -74718.8569136206   -74718.964019836
  Force two-norm initial, final = 5.269953 0.85738146
  Force max component initial, final = 0.052442243 0.0085447709
  Final line search alpha, max atom move = 1 0.0085447709
  Iterations, force evaluations = 1 2

MPI task timing breakdown:
Section |  min time  |  avg time  |  max time  |%varavg| %total
---------------------------------------------------------------
Pair    | 0.031256   | 0.035288   | 0.042086   |   1.5 | 82.31
Neigh   | 0          | 0          | 0          |   0.0 |  0.00
Comm    | 0.00049429 | 0.0072461  | 0.011258   |   3.3 | 16.90
Output  | 0          | 0          | 0          |   0.0 |  0.00
Modify  | 0          | 0          | 0          |   0.0 |  0.00
Other   |            | 0.0003388  |            |       |  0.79

Nlocal:            840 ave         900 max         780 min
Histogram: 3 0 0 0 0 6 0 0 0 3
Nghost:           3108 ave        3168 max        3048 min
Histogram: 3 0 0 0 0 6 0 0 0 3
Neighs:              0 ave           0 max           0 min
Histogram: 12 0 0 0 0 0 0 0 0 0

Total # of neighbors = 0
Ave neighs/atom = 0
Neighbor list builds = 0
Dangerous builds = 0
Setting up Verlet run ...
  Unit style    : metal
  Current step  : 1
  Time step     : 0.001
Per MPI rank memory allocation (min/avg/max) = 12.4 | 12.78 | 13.16 Mbytes
   Step          Temp          E_pair         E_mol          TotEng         Press          Volume    
         1   300           -74718.964      0             -74328.12      -24.031095      17459072     
Loop time of 3.17474e-05 on 12 procs for 0 steps with 10080 atoms

63.3% CPU use with 12 MPI tasks x 1 OpenMP threads

MPI task timing breakdown:
Section |  min time  |  avg time  |  max time  |%varavg| %total
---------------------------------------------------------------
Pair    | 0          | 0          | 0          |   0.0 |  0.00
Neigh   | 0          | 0          | 0          |   0.0 |  0.00
Comm    | 0          | 0          | 0          |   0.0 |  0.00
Output  | 0          | 0          | 0          |   0.0 |  0.00
Modify  | 0          | 0          | 0          |   0.0 |  0.00
Other   |            | 3.175e-05  |            |       |100.00

Nlocal:            840 ave         840 max         840 min
Histogram: 12 0 0 0 0 0 0 0 0 0
Nghost:           3108 ave        3108 max        3108 min
Histogram: 12 0 0 0 0 0 0 0 0 0
Neighs:              0 ave           0 max           0 min
Histogram: 12 0 0 0 0 0 0 0 0 0

Total # of neighbors = 0
Ave neighs/atom = 0
Neighbor list builds = 0
Dangerous builds = 0
WARNING: Dump 2 includes no atom IDs and is not sorted by ID. This may complicate post-processing tasks or visualization (src/dump.cpp:221)
Setting up Verlet run ...
  Unit style    : metal
  Current step  : 0
  Time step     : 0.001
Per MPI rank memory allocation (min/avg/max) = 13.9 | 14.28 | 14.66 Mbytes
   Step         PotEng         KinEng         TotEng           Lx             Ly             Lz      
         0  -74718.964      390.8439      -74328.12       200            200            436.47681    
       100  -74490.69       191.30518     -74299.385      199.99289      199.99467      436.69505    
       200  -74499.963      240.18884     -74259.774      199.98868      199.99185      436.91328    
       300  -74462.428      250.07927     -74212.349      199.9936       199.99761      437.13152    
       400  -74439.952      279.59568     -74160.357      199.98535      199.99015      437.34976    
       500  -74415.274      309.66947     -74105.604      199.98449      199.99089      437.568      
       600  -74388.143      337.79195     -74050.351      199.98721      199.99553      437.78624    
       700  -74358.784      360.88399     -73997.9        199.97586      199.98544      438.00448    
       800  -74335.954      383.17841     -73952.776      199.97986      199.99023      438.22271    
       900  -74321.216      400.51715     -73920.699      199.98045      199.99214      438.44095    
      1000  -74307.784      398.66346     -73909.12       199.96515      199.97888      438.65919    
      1100  -74318.357      397.17737     -73921.179      199.97034      199.98619      438.87743    
      1200  -74320.486      380.66482     -73939.821      199.96688      199.98434      439.09567    
      1300  -74330.08       383.12808     -73946.952      199.95516      199.97408      439.31391    
      1400  -74321.538      383.15342     -73938.385      199.96241      199.98281      439.53214    
      1500  -74315.45       395.31162     -73920.139      199.9526       199.97483      439.75038    
      1600  -74305.636      397.55573     -73908.081      199.94416      199.9685       439.96862    
      1700  -74308.338      396.99225     -73911.346      199.95143      199.97736      440.18686    
      1800  -74313.578      390.7109      -73922.867      199.93709      199.96493      440.4051     
      1900  -74312.065      383.4108      -73928.655      199.93123      199.9616       440.62334    
      2000  -74307.381      385.63585     -73921.745      199.9355       199.96815      440.84158    
      2100  -74303.224      397.55101     -73905.673      199.91872      199.9539       441.05981    
      2200  -74293.828      398.6315      -73895.196      199.91881      199.9565       441.27805    
      2300  -74291.716      395.8804      -73895.836      199.91839      199.95803      441.49629    
      2400  -74289.421      386.09675     -73903.324      199.90024      199.94208      441.71453    
      2500  -74294.372      386.29503     -73908.077      199.90247      199.94679      441.93277    
      2600  -74291.724      389.61796     -73902.106      199.89779      199.94453      442.15101    
      2700  -74277.107      388.42465     -73888.683      199.88077      199.92956      442.36924    
      2800  -74270.57       393.52587     -73877.044      199.88444      199.93501      442.58748    
      2900  -74268.574      395.82137     -73872.752      199.87547      199.92887      442.80572    
      3000  -74271.532      394.50627     -73877.026      199.8615       199.91667      443.02396    
      3100  -74270.535      388.00832     -73882.527      199.86508      199.92221      443.2422     
      3200  -74268.104      387.44004     -73880.663      199.8528       199.91115      443.46044    
      3300  -74256.484      386.55993     -73869.924      199.84036      199.90041      443.67867    
      3400  -74243.934      388.76996     -73855.164      199.84348      199.90471      443.89691    
      3500  -74244.074      398.29211     -73845.782      199.82901      199.89156      444.11515    
      3600  -74245.791      398.59121     -73847.2        199.81968      199.8829       444.33339    
      3700  -74246.511      393.58808     -73852.923      199.82016      199.88425      444.55163    
      3800  -74241.316      387.81927     -73853.497      199.80453      199.8694       444.76987    
      3900  -74233.006      388.28427     -73844.722      199.79724      199.8631       444.9881     
      4000  -74225.702      395.77114     -73829.93       199.79598      199.8627       445.20634    
      4100  -74216.987      399.06149     -73817.925      199.77826      199.84605      445.42458    
      4200  -74208.668      393.49424     -73815.174      199.77212      199.84134      445.64282    
      4300  -74210.524      391.33809     -73819.186      199.76762      199.83892      445.86106    
      4400  -74208.246      387.5441      -73820.702      199.74881      199.82212      446.0793     
      4500  -74202.111      386.55353     -73815.557      199.74395      199.81846      446.29754    
      4600  -74192.427      390.56469     -73801.862      199.7373       199.81306      446.51577    
      4700  -74182.578      396.07405     -73786.504      199.71797      199.79572      446.73401    
      4800  -74173.076      393.46736     -73779.609      199.71414      199.79406      446.95225    
      4900  -74172.478      391.27423     -73781.204      199.70433      199.78553      447.17049    
      5000  -74173.781      389.59341     -73784.187      199.6857       199.76878      447.38873    
      5100  -74167.23       386.4118      -73780.819      199.68051      199.76629      447.60697    
      5200  -74157.528      390.47679     -73767.051      199.66735      199.75639      447.8252     
      5300  -74145.538      393.92126     -73751.617      199.65023      199.74192      448.04344    
      5400  -74139.916      397.29874     -73742.617      199.64389      199.73898      448.26168    
      5500  -74135.816      393.53293     -73742.283      199.62815      199.72698      448.47992    
      5600  -74133.675      389.89187     -73743.783      199.60998      199.71298      448.69816    
      5700  -74123.273      383.22902     -73740.044      199.60266      199.70916      448.9164     
      5800  -74117.563      388.5396      -73729.023      199.58597      199.69625      449.13463    
      5900  -74107.146      393.60354     -73713.542      199.56754      199.68217      449.35287    
      6000  -74092.892      391.47293     -73701.419      199.55907      199.67821      449.57111    
      6100  -74090.095      393.62908     -73696.466      199.54077      199.66372      449.78935    
      6200  -74085.018      388.3518      -73696.666      199.52286      199.64963      450.00759    
      6300  -74082.395      386.70883     -73695.686      199.51381      199.64468      450.22583    
      6400  -74076.657      388.78166     -73687.875      199.49321      199.62794      450.44406    
      6500  -74061.608      388.20967     -73673.398      199.47598      199.61409      450.6623     
      6600  -74053.735      395.50551     -73658.23       199.46706      199.60843      450.88054    
      6700  -74042.637      393.61033     -73649.026      199.44556      199.58974      451.09878    
      6800  -74040.028      392.06711     -73647.961      199.42823      199.57507      451.31702    
      6900  -74035.266      387.39476     -73647.871      199.41733      199.56632      451.53526    
      7000  -74030.795      389.78411     -73641.011      199.39453      199.54533      451.7535     
      7100  -74019.824      392.23972     -73627.585      199.38015      199.53216      451.97173    
      7200  -74003.951      392.17788     -73611.773      199.36749      199.52112      452.18997    
      7300  -73993.961      394.76838     -73599.192      199.34321      199.4982       452.40821    
      7400  -73985.068      390.87373     -73594.195      199.32889      199.48511      452.62645    
      7500  -73981.677      388.86711     -73592.81       199.31412      199.47176      452.84469    
      7600  -73975.373      387.06193     -73588.311      199.28949      199.44842      453.06293    
      7700  -73967.736      390.2593      -73577.477      199.27509      199.43499      453.28116    
      7800  -73954.967      393.24189     -73561.725      199.25779      199.41919      453.4994     
      7900  -73943.429      396.00048     -73547.428      199.23311      199.39594      453.71764    
      8000  -73933.77       394.24648     -73539.524      199.21836      199.38205      453.93588    
      8100  -73926.333      389.95827     -73536.374      199.19904      199.36409      454.15412    
      8200  -73921.937      389.11634     -73532.821      199.17331      199.34079      454.37236    
      8300  -73914.944      391.29028     -73523.654      199.15664      199.32686      454.59059    
      8400  -73897.091      388.63845     -73508.453      199.13513      199.30717      454.80883    
      8500  -73886.373      394.25754     -73492.115      199.10864      199.28324      455.02707    
      8600  -73873.86       393.78507     -73480.075      199.09018      199.26847      455.24531    
      8700  -73868.09       394.02952     -73474.06       199.06636      199.24797      455.46355    
      8800  -73861.597      390.78088     -73470.816      199.03892      199.22405      455.68179    
      8900  -73850.765      387.15449     -73463.611      199.01892      199.20758      455.90002    
      9000  -73841.933      391.87388     -73450.059      198.99386      199.18645      456.11826    
      9100  -73824.575      391.34794     -73433.227      198.96544      199.16228      456.3365     
      9200  -73812.267      392.83065     -73419.436      198.94349      199.14416      456.55474    
      9300  -73805.447      394.32977     -73411.117      198.91632      199.12049      456.77298    
      9400  -73797.286      390.60584     -73406.68       198.88751      199.09588      456.99122    
      9500  -73788.13       387.46785     -73400.662      198.86426      199.07696      457.20946    
      9600  -73778.81       390.17823     -73388.632      198.83489      199.05186      457.42769    
      9700  -73760.641      389.02873     -73371.612      198.80563      199.02689      457.64593    
      9800  -73749.053      392.82277     -73356.23       198.78123      199.00668      457.86417    
      9900  -73738.981      393.33212     -73345.649      198.7492       198.97894      458.08241    
     10000  -73729.359      390.11675     -73339.242      198.71842      198.95266      458.30065    
     10100  -73715.783      383.53324     -73332.25       198.69293      198.93092      458.51889    
     10200  -73709.105      388.7613      -73320.344      198.65986      198.90163      458.73712    
     10300  -73694.378      389.93966     -73304.438      198.62839      198.87475      458.95536    
     10400  -73686.873      398.75792     -73288.115      198.60127      198.85213      459.1736     
     10500  -73671.096      395.39799     -73275.698      198.56624      198.82101      459.39184    
     10600  -73658.56       389.97121     -73268.588      198.5339       198.79228      459.61008    
     10700  -73648.214      386.93387     -73261.28       198.50513      198.76751      459.82832    
     10800  -73636.402      387.24881     -73249.153      198.46907      198.73581      460.04655    
     10900  -73624.012      392.33499     -73231.677      198.43638      198.70699      460.26479    
     11000  -73605.923      392.42182     -73213.501      198.406        198.68035      460.48303    
     11100  -73595.794      392.25899     -73203.535      198.36918      198.64686      460.70127    
     11200  -73588.902      393.65451     -73195.248      198.33512      198.61682      460.91951    
     11300  -73579.04       394.71931     -73184.321      198.30211      198.58781      461.13775    
     11400  -73568.203      396.00853     -73172.194      198.26444      198.55281      461.35598    
     11500  -73550.91       391.40756     -73159.503      198.23028      198.52198      461.57422    
     11600  -73536.577      391.28709     -73145.29       198.19595      198.49175      461.79246    
     11700  -73522.69       392.74328     -73129.946      198.15693      198.45666      462.0107     
     11800  -73506.869      390.17133     -73116.697      198.12118      198.4249       462.22894    
     11900  -73501.449      393.25288     -73108.196      198.08573      198.39262      462.44718    
     12000  -73487.745      387.52731     -73100.218      198.04553      198.35646      462.66542    
     12100  -73470.605      384.64558     -73085.96       198.00863      198.32345      462.88365    
     12200  -73455.837      392.0124      -73063.825      197.97233      198.29098      463.10189    
     12300  -73446.856      398.03945     -73048.817      197.93198      198.2534       463.32013    
     12400  -73431.296      392.44412     -73038.852      197.89491      198.2201       463.53837    
     12500  -73418.663      388.63111     -73030.032      197.85703      198.18649      463.75661    
     12600  -73406.807      389.01712     -73017.79       197.81489      198.14785      463.97485    
     12700  -73390.613      392.14506     -72998.468      197.77724      198.11378      464.19308    
     12800  -73375.099      397.4178      -72977.681      197.73916      198.07937      464.41132    
     12900  -73354.542      388.43356     -72966.109      197.69591      198.04046      464.62956    
     13000  -73351.124      393.411       -72957.713      197.65799      198.00657      464.8478     
     13100  -73330.494      384.7359      -72945.758      197.61889      197.97101      465.06604    
     13200  -73318.92       388.35194     -72930.568      197.57542      197.93154      465.28428    
     13300  -73305.727      393.53499     -72912.192      197.53749      197.8982       465.50251    
     13400  -73285.057      396.61054     -72888.446      197.49684      197.86212      465.72075    
     13500  -73269.479      393.09028     -72876.389      197.45288      197.82177      465.93899    
     13600  -73265.164      397.42444     -72867.739      197.41566      197.78852      466.15723    
     13700  -73248.315      391.62398     -72856.691      197.37416      197.75158      466.37547    
     13800  -73232.143      388.37387     -72843.769      197.32942      197.71215      466.59371    
     13900  -73217.251      388.00891     -72829.242      197.29186      197.67914      466.81195    
     14000  -73203.042      393.61758     -72809.424      197.25017      197.64146      467.03018    
     14100  -73181.74       392.52203     -72789.218      197.20655      197.60286      467.24842    
     14200  -73164.811      388.95502     -72775.856      197.16872      197.57053      467.46666    
     14300  -73158.378      390.99789     -72767.38       197.126        197.53158      467.6849     
     14400  -73145.042      389.11769     -72755.924      197.08477      197.49406      467.90314    
     14500  -73130.04       390.64911     -72739.391      197.04812      197.46183      468.12138    
     14600  -73112.996      392.61521     -72720.381      197.00447      197.42291      468.33961    
     14700  -73093.405      391.35401     -72702.051      196.96456      197.38704      468.55785    
     14800  -73077.528      391.49117     -72686.037      196.92818      197.35493      468.77609    
     14900  -73064.477      388.4716      -72676.006      196.88489      197.31606      468.99433    
     15000  -73054.546      389.12962     -72665.417      196.84582      197.28159      469.21257    
     15100  -73032.064      385.7611      -72646.303      196.80957      197.24978      469.43081    
     15200  -73014.989      391.17664     -72623.813      196.76762      197.2114       469.64904    
     15300  -72999.793      392.69584     -72607.097      196.73105      197.17884      469.86728    
     15400  -72983.847      391.6365      -72592.21       196.69418      197.14612      470.08552    
     15500  -72966.751      387.32199     -72579.429      196.65335      197.10942      470.30376    
     15600  -72957.718      388.34782     -72569.37       196.61879      197.07853      470.522      
     15700  -72936.837      387.3183      -72549.518      196.58238      197.04514      470.74024    
     15800  -72917.693      390.78446     -72526.909      196.54475      197.01086      470.95847    
     15900  -72897.783      388.94725     -72508.836      196.51149      196.98124      471.17671    
     16000  -72884.74       391.67274     -72493.068      196.47634      196.94922      471.39495    
     16100  -72871.54       389.84622     -72481.693      196.44069      196.91631      471.61319    
     16200  -72854.613      384.91817     -72469.694      196.40751      196.88604      471.83143    
     16300  -72836.994      389.20631     -72447.787      196.37442      196.8562       472.04967    
     16400  -72813.074      389.64608     -72423.428      196.34123      196.82548      472.26791    
     16500  -72797.614      391.32524     -72406.289      196.30938      196.7955       472.48614    
     16600  -72783.069      391.17301     -72391.896      196.27796      196.76694      472.70438    
     16700  -72768.055      388.40004     -72379.655      196.24576      196.73784      472.92262    
     16800  -72749.861      385.29466     -72364.567      196.21466      196.70977      473.14086    
     16900  -72730.804      390.5894      -72340.215      196.18541      196.68289      473.3591     
     17000  -72710.101      392.389       -72317.712      196.15564      196.65609      473.57734    
     17100  -72695.1        393.7981      -72301.302      196.12573      196.62903      473.79557    
     17200  -72676.387      386.73123     -72289.656      196.09838      196.60383      474.01381    
     17300  -72664.485      389.37978     -72275.105      196.06975      196.57711      474.23205    
     17400  -72644.508      388.98314     -72255.525      196.04212      196.55151      474.45029    
     17500  -72625.187      390.82702     -72234.36       196.01637      196.52819      474.66853    
     17600  -72606.13       390.39832     -72215.732      195.98864      196.50289      474.88677    
     17700  -72585.923      388.53755     -72197.386      195.96322      196.479        475.105      
     17800  -72569.513      390.37102     -72179.142      195.93938      196.45688      475.32324    
     17900  -72551.329      391.03035     -72160.298      195.91314      196.43309      475.54148    
     18000  -72535.393      393.89393     -72141.499      195.88876      196.41111      475.75972    
     18100  -72515.459      391.52804     -72123.931      195.86569      196.38976      475.97796    
     18200  -72497.976      390.5393      -72107.436      195.84012      196.36654      476.1962     
     18300  -72479.709      389.32359     -72090.385      195.8177       196.34665      476.41443    
     18400  -72462.613      390.73251     -72071.88       195.7968       196.32787      476.63267    
     18500  -72442.834      393.46607     -72049.367      195.77247      196.30542      476.85091    
     18600  -72421.728      395.8113      -72025.917      195.75159      196.28632      477.06915    
     18700  -72400.598      393.20498     -72007.393      195.73158      196.26832      477.28739    
     18800  -72388.399      390.90585     -71997.493      195.70815      196.24715      477.50563    
     18900  -72365.563      384.25431     -71981.308      195.68825      196.2293       477.72387    
     19000  -72345.423      387.4855      -71957.938      195.66839      196.21137      477.9421     
     19100  -72325.92       391.08359     -71934.836      195.64715      196.19212      478.16034    
     19200  -72306.833      392.03158     -71914.802      195.62877      196.17572      478.37858    
     19300  -72286.199      389.38917     -71896.81       195.61035      196.15902      478.59682    
     19400  -72273.277      388.57724     -71884.7        195.59058      196.14008      478.81506    
     19500  -72255.969      385.40837     -71870.56       195.57297      196.1241       479.0333     
     19600  -72233.783      388.04584     -71845.737      195.55524      196.1078       479.25153    
     19700  -72212.559      391.36796     -71821.191      195.53696      196.0906       479.46977    
     19800  -72192.408      392.55175     -71799.856      195.52136      196.07565      479.68801    
     19900  -72172.937      392.62906     -71780.308      195.50404      196.05912      479.90625    
     20000  -72151.679      386.70197     -71764.977      195.48607      196.04289      480.12449    
     20100  -72133.252      382.72256     -71750.53       195.47094      196.02827      480.34273    
     20200  -72117.123      389.0401      -71728.082      195.45534      196.0128       480.56096    
     20300  -72098.186      397.60269     -71700.583      195.43853      195.9971       480.7792     
     20400  -72071.746      392.33153     -71679.414      195.4236       195.98282      480.99744    
     20500  -72050.312      390.21131     -71660.101      195.40909      195.96904      481.21568    
     20600  -72032.457      389.74449     -71642.713      195.39391      195.95395      481.43392    
     20700  -72018.137      389.98302     -71628.153      195.38003      195.9398       481.65216    
     20800  -71996.094      386.09877     -71609.996      195.36565      195.92611      481.87039    
     20900  -71976.11       394.31982     -71581.791      195.3506       195.91187      482.08863    
     21000  -71949.341      392.06876     -71557.273      195.33695      195.89819      482.30687    
     21100  -71929.566      392.31202     -71537.254      195.32414      195.88582      482.52511    
     21200  -71910.975      391.45619     -71519.518      195.30931      195.87192      482.74335    
     21300  -71893.409      389.80002     -71503.609      195.29544      195.85883      482.96159    
     21400  -71871.7        384.92551     -71486.775      195.28371      195.84679      483.17983    
     21500  -71848.81       387.95872     -71460.851      195.26851      195.83203      483.39806    
     21600  -71826.414      393.18966     -71433.224      195.25552      195.81997      483.6163     
     21700  -71807.042      395.44299     -71411.599      195.2446       195.80964      483.83454    
     21800  -71784.337      391.6499      -71392.687      195.22915      195.79458      484.05278    
     21900  -71764.406      387.17254     -71377.234      195.21618      195.78275      484.27102    
     22000  -71743.388      383.44196     -71359.946      195.2052       195.77283      484.48926    
     22100  -71722.144      390.49644     -71331.647      195.18986      195.75858      484.70749    
     22200  -71696.247      390.62756     -71305.619      195.17799      195.7476       484.92573    
     22300  -71676.66       392.14468     -71284.515      195.16603      195.73707      485.14397    
     22400  -71657.94       392.10229     -71265.838      195.1501       195.72267      485.36221    
     22500  -71636.272      387.88367     -71248.388      195.13829      195.71279      485.58045    
     22600  -71619.441      387.91248     -71231.529      195.12733      195.70306      485.79869    
     22700  -71593.186      385.62541     -71207.56       195.11085      195.68832      486.01692    
     22800  -71570.206      392.59516     -71177.611      195.0986       195.67824      486.23516    
     22900  -71545.138      390.8983      -71154.24       195.08753      195.66866      486.4534     
     23000  -71529.212      395.40976     -71133.802      195.07215      195.6539       486.67164    
     23100  -71510.9        393.26287     -71117.637      195.06056      195.64426      486.88988    
     23200  -71486.071      385.85131     -71100.22       195.04843      195.63426      487.10812    
     23300  -71460.959      387.3191      -71073.64       195.03254      195.61993      487.32636    
     23400  -71438.573      393.95141     -71044.622      195.02186      195.6101       487.54459    
     23500  -71414.439      391.6046      -71022.834      195.00935      195.59849      487.76283    
     23600  -71395.423      391.64203     -71003.781      194.99433      195.58528      487.98107    
     23700  -71373.636      388.11493     -70985.521      194.98387      195.57517      488.19931    
     23800  -71353.626      389.47949     -70964.147      194.97124      195.56237      488.41755    
     23900  -71325.64       390.4008      -70935.239      194.95757      195.54938      488.63579    
     24000  -71304.751      396.06159     -70908.689      194.94673      195.54016      488.85402    
     24100  -71277.746      389.35039     -70888.395      194.9332       195.52727      489.07226    
     24200  -71262.454      390.4368      -70872.017      194.91985      195.51338      489.2905     
     24300  -71239.1        385.71549     -70853.385      194.90944      195.5035       489.50874    
     24400  -71213.071      384.19935     -70828.872      194.89606      195.4911       489.72698    
     24500  -71195.328      390.66457     -70804.663      194.88274      195.47798      489.94522    
     24600  -71164.979      385.33862     -70779.641      194.87246      195.46702      490.16345    
     24700  -71145.037      392.15987     -70752.877      194.85828      195.4528       490.38169    
     24800  -71121.092      393.86308     -70727.229      194.84483      195.44024      490.59993    
     24900  -71098.053      392.99033     -70705.063      194.83444      195.42947      490.81817    
     25000  -71078.796      389.96354     -70688.833      194.82145      195.41497      491.03641    
     25100  -71053.915      384.39551     -70669.519      194.80859      195.40211      491.25465    
     25200  -71036.049      392.13235     -70643.917      194.79709      195.39092      491.47288    
     25300  -71006.096      392.03774     -70614.058      194.78389      195.37717      491.69112    
     25400  -70984.512      393.95742     -70590.554      194.77156      195.36428      491.90936    
     25500  -70961.42       392.01072     -70569.409      194.7592       195.35206      492.1276     
     25600  -70939.329      390.29099     -70549.038      194.7453       195.33845      492.34584    
     25700  -70915.576      386.39911     -70529.177      194.73261      195.32524      492.56408    
     25800  -70893.989      384.41617     -70509.573      194.7202       195.31271      492.78232    
     25900  -70865.438      383.84363     -70481.594      194.70707      195.29964      493.00055    
     26000  -70841.58       389.72025     -70451.86       194.69382      195.28642      493.21879    
     26100  -70819.319      393.04077     -70426.278      194.68059      195.27337      493.43703    
     26200  -70793.547      390.48323     -70403.064      194.66662      195.25919      493.65527    
     26300  -70773.974      389.10405     -70384.87       194.65335      195.24616      493.87351    
     26400  -70755.837      388.77488     -70367.062      194.63945      195.23327      494.09175    
     26500  -70722.931      382.78103     -70340.15       194.62524      195.2195       494.30998    
     26600  -70701.3        390.37305     -70310.927      194.61194      195.20594      494.52822    
     26700  -70677.696      391.86657     -70285.829      194.59772      195.19244      494.74646    
     26800  -70649.831      389.94255     -70259.889      194.58214      195.17782      494.9647     
     26900  -70626.28       391.62631     -70234.653      194.56854      195.16483      495.18294    
     27000  -70601.643      390.10851     -70211.534      194.55477      195.15118      495.40118    
     27100  -70576.704      384.29575     -70192.409      194.53848      195.13589      495.61941    
     27200  -70561.58       390.29307     -70171.287      194.52365      195.12269      495.83765    
     27300  -70534.5        391.1652      -70143.335      194.50985      195.10917      496.05589    
     27400  -70506.079      393.51536     -70112.564      194.49418      195.09396      496.27413    
     27500  -70482.8        394.18267     -70088.618      194.47849      195.07949      496.49237    
     27600  -70460.005      392.45219     -70067.553      194.46345      195.06573      496.71061    
     27700  -70437.361      390.29982     -70047.061      194.44792      195.05052      496.92884    
     27800  -70417.65       387.45039     -70030.2        194.43267      195.03618      497.14708    
     27900  -70391.116      383.55882     -70007.557      194.41716      195.02177      497.36532    
     28000  -70362.544      386.94744     -69975.596      194.40125      195.00681      497.58356    
     28100  -70333.117      386.48484     -69946.632      194.38518      194.99177      497.8018     
     28200  -70317.172      399.24301     -69917.929      194.36921      194.977        498.02004    
     28300  -70285.84       394.67302     -69891.167      194.35355      194.96236      498.23828    
     28400  -70256.727      388.24731     -69868.48       194.3367       194.94716      498.45651    
     28500  -70238.718      387.29767     -69851.42       194.31961      194.93171      498.67475    
     28600  -70216.674      388.06679     -69828.607      194.30375      194.91709      498.89299    
     28700  -70191.291      392.91131     -69798.38       194.28696      194.90165      499.11123    
     28800  -70160.15       390.25125     -69769.899      194.26959      194.88569      499.32947    
     28900  -70139.725      394.89899     -69744.826      194.25426      194.87169      499.54771    
     29000  -70116.325      395.7368      -69720.589      194.23671      194.85543      499.76594    
     29100  -70084.714      387.32047     -69697.394      194.21886      194.83872      499.98418    
     29200  -70064.712      391.05552     -69673.657      194.2029       194.824        500.20242    
     29300  -70034.473      389.45767     -69645.015      194.18468      194.8073       500.42066    
     29400  -70004.795      390.82048     -69613.975      194.16673      194.79027      500.6389     
     29500  -69980.19       392.28106     -69587.909      194.15056      194.77494      500.85714    
     29600  -69957.378      390.23171     -69567.146      194.13303      194.75778      501.07537    
     29700  -69935.503      385.94391     -69549.559      194.11457      194.73993      501.29361    
     29800  -69916.085      392.32432     -69523.76       194.09816      194.72409      501.51185    
     29900  -69884.933      390.26566     -69494.667      194.08123      194.70698      501.73009    
     30000  -69854.376      389.15642     -69465.22       194.06273      194.68783      501.94833    
     30100  -69827.283      390.88008     -69436.403      194.04509      194.67042      502.16657    
     30200  -69802.934      393.30993     -69409.624      194.02782      194.65291      502.3848     
     30300  -69779.63       391.14671     -69388.483      194.00999      194.63372      502.60304    
     30400  -69756.219      386.61675     -69369.602      193.9922       194.61486      502.82128    
     30500  -69728.863      386.23651     -69342.626      193.97405      194.59667      503.03952    
     30600  -69701.631      391.42027     -69310.211      193.95561      194.57756      503.25776    
     30700  -69678.569      396.95757     -69281.612      193.93722      194.55796      503.476      
     30800  -69646.414      389.30655     -69257.107      193.91976      194.53933      503.69424    
     30900  -69626.094      391.36652     -69234.728      193.90026      194.52004      503.91247    
     31000  -69597.746      381.85867     -69215.887      193.88175      194.50009      504.13071    
     31100  -69575.281      382.57091     -69192.71       193.86408      194.48089      504.34895    
     31200  -69549.023      389.78928     -69159.234      193.84415      194.46104      504.56719    
     31300  -69521.4        391.24629     -69130.154      193.82476      194.44093      504.78543    
     31400  -69493.036      391.99063     -69101.045      193.80584      194.421        505.00367    
     31500  -69462.563      391.04117     -69071.522      193.78583      194.4009       505.2219     
     31600  -69435.355      391.78863     -69043.566      193.76644      194.38158      505.44014    
     31700  -69416.279      397.04915     -69019.23       193.74625      194.36146      505.65838    
     31800  -69391.127      390.83319     -69000.294      193.72693      194.3413       505.87662    
     31900  -69362.375      386.11543     -68976.26       193.70691      194.32208      506.09486    
     32000  -69337.189      391.28941     -68945.899      193.68557      194.30162      506.3131     
     32100  -69307.987      394.58042     -68913.407      193.66527      194.28149      506.53133    
     32200  -69272.691      385.4267      -68887.264      193.64517      194.26171      506.74957    
     32300  -69257.912      394.2604      -68863.652      193.6232       194.24111      506.96781    
     32400  -69224.117      384.27874     -68839.838      193.60171      194.22098      507.18605    
     32500  -69202.79       387.41202     -68815.378      193.58148      194.20142      507.40429    
     32600  -69172.877      385.61277     -68787.264      193.55902      194.1804       507.62253    
     32700  -69147.341      393.2664      -68754.075      193.53681      194.15984      507.84076    
     32800  -69119.192      394.85536     -68724.337      193.5164       194.14114      508.059      
     32900  -69090.604      391.12902     -68699.475      193.49366      194.11991      508.27724    
     33000  -69063.281      383.12135     -68680.16       193.47048      194.09847      508.49548    
     33100  -69045.016      389.23966     -68655.776      193.44966      194.07948      508.71372    
     33200  -69015.557      389.05908     -68626.498      193.42674      194.05864      508.93196    
     33300  -68987.817      390.61471     -68597.202      193.40264      194.03674      509.1502     
     33400  -68954.162      386.67571     -68567.486      193.38099      194.01676      509.36843    
     33500  -68927.029      389.42954     -68537.6        193.3585       193.9955       509.58667    
     33600  -68900.994      392.98598     -68508.008      193.33446      193.97337      509.80491    
     33700  -68869.44       393.84017     -68475.6        193.31226      193.9532       510.02315    
     33800  -68844.463      395.05214     -68449.41       193.289        193.93137      510.24139    
     33900  -68819.713      388.8712      -68430.842      193.26472      193.90828      510.45963    
     34000  -68792.5        386.1083      -68406.392      193.24193      193.88699      510.67786    
     34100  -68766.661      388.71238     -68377.949      193.21859      193.86509      510.8961     
     34200  -68739.782      393.67885     -68346.103      193.1948       193.84182      511.11434    
     34300  -68706.699      392.82529     -68313.874      193.17194      193.81954      511.33258    
     34400  -68691.198      401.13143     -68290.067      193.14867      193.79754      511.55082    
     34500  -68655.601      383.48565     -68272.115      193.12421      193.77323      511.76906    
     34600  -68630.948      386.51599     -68244.432      193.10128      193.75002      511.98729    
     34700  -68605.334      393.37892     -68211.955      193.07865      193.72744      512.20553    
     34800  -68576.689      395.61762     -68181.072      193.05446      193.70349      512.42377    
     34900  -68547.476      392.6605      -68154.816      193.03123      193.67935      512.64201    
     35000  -68524.064      390.51061     -68133.553      193.00801      193.65557      512.86025    
     35100  -68499.425      386.29987     -68113.125      192.98407      193.63136      513.07849    
     35200  -68468.968      386.90577     -68082.062      192.96063      193.6078       513.29673    
     35300  -68437.208      387.51111     -68049.697      192.9369       193.58367      513.51496    
     35400  -68410.782      392.15404     -68018.628      192.91242      193.55844      513.7332     
     35500  -68380.595      391.94258     -67988.653      192.89005      193.53512      513.95144    
     35600  -68348.66       388.56272     -67960.097      192.86622      193.51088      514.16968    
     35700  -68329.357      395.44345     -67933.913      192.84149      193.4857       514.38792    
     35800  -68296.488      384.53858     -67911.949      192.8193       193.46239      514.60616    
     35900  -68270.392      384.58917     -67885.803      192.79481      193.43698      514.82439    
     36000  -68243.256      391.47246     -67851.784      192.76903      193.41106      515.04263    
     36100  -68215.789      395.88867     -67819.9        192.74677      193.38877      515.26087    
     36200  -68183.852      391.5696      -67792.282      192.72285      193.36409      515.47911    
     36300  -68157.383      390.54337     -67766.84       192.69671      193.33772      515.69735    
     36400  -68135.129      389.13117     -67745.997      192.67484      193.31596      515.91559    
     36500  -68106.322      384.39975     -67721.923      192.65076      193.29149      516.13382    
     36600  -68070.857      383.40868     -67687.449      192.6237       193.26407      516.35206    
     36700  -68047.103      391.17569     -67655.927      192.60156      193.24153      516.5703     
     36800  -68020.252      393.91923     -67626.332      192.57848      193.21859      516.78854    
     36900  -67986.275      389.37216     -67596.903      192.55098      193.19123      517.00678    
     37000  -67958.957      392.67611     -67566.281      192.5273       193.16716      517.22502    
     37100  -67923.162      388.81818     -67534.343      192.50438      193.14423      517.44325    
     37200  -67899.767      393.40266     -67506.364      192.47747      193.1179       517.66149    
     37300  -67874.747      388.16602     -67486.581      192.45249      193.09335      517.87973    
     37400  -67850.238      389.12503     -67461.113      192.42936      193.07009      518.09797    
     37500  -67816.167      386.07444     -67430.093      192.40304      193.0445       518.31621    
     37600  -67791.279      394.57875     -67396.7        192.37763      193.01975      518.53445    
     37700  -67757.548      389.69006     -67367.858      192.35486      192.99722      518.75269    
     37800  -67735.903      394.58072     -67341.322      192.32857      192.97174      518.97092    
     37900  -67705.452      389.87055     -67315.581      192.30262      192.94694      519.18916    
     38000  -67676.515      388.56108     -67287.954      192.27825      192.92356      519.4074     
     38100  -67647.837      394.2175      -67253.62       192.25264      192.89806      519.62564    
     38200  -67617.467      397.2512      -67220.216      192.22723      192.8739       519.84388    
     38300  -67586.477      391.38369     -67195.094      192.20196      192.85086      520.06212    
     38400  -67564.094      392.05242     -67172.042      192.17651      192.82559      520.28035    
     38500  -67536.091      391.51164     -67144.58       192.15112      192.80136      520.49859    
     38600  -67502.138      386.90577     -67115.232      192.12636      192.77944      520.71683    
     38700  -67474.509      390.02087     -67084.488      192.10039      192.75473      520.93507    
     38800  -67444.943      393.6047      -67051.338      192.07542      192.73028      521.15331    
     38900  -67409.029      392.1795      -67016.85       192.05139      192.70816      521.37155    
     39000  -67386.82       395.9754      -66990.844      192.02448      192.68318      521.58978    
     39100  -67365.522      394.59701     -66970.925      192.00019      192.65963      521.80802    
     39200  -67333.446      389.73333     -66943.712      191.97608      192.63633      522.02626    
     39300  -67303.062      390.59223     -66912.47       191.94852      192.61142      522.2445     
     39400  -67271.743      391.52984     -66880.213      191.92564      192.5895       522.46274    
     39500  -67241.761      394.84363     -66846.917      191.9017       192.56601      522.68098    
     39600  -67211.7        394.08734     -66817.613      191.8753       192.54172      522.89921    
     39700  -67189.071      391.19644     -66797.875      191.85176      192.51973      523.11745    
     39800  -67158.276      385.03959     -66773.237      191.8288       192.49691      523.33569    
     39900  -67135.407      392.64985     -66742.757      191.80188      192.47125      523.55393    
     40000  -67099.947      391.99507     -66707.952      191.77815      192.44928      523.77217    
     40100  -67068.652      392.25133     -66676.4        191.75604      192.42749      523.99041    
     40200  -67041.548      392.92166     -66648.627      191.72975      192.40157      524.20865    
     40300  -67013.159      391.41105     -66621.748      191.70603      192.37929      524.42688    
     40400  -66984.198      390.98482     -66593.213      191.68436      192.35831      524.64512    
     40500  -66956.598      392.93233     -66563.666      191.65894      192.33241      524.86336    
     40600  -66926.02       392.79742     -66533.222      191.63521      192.30895      525.0816     
     40700  -66891.884      392.62742     -66499.256      191.61401      192.28867      525.29984    
     40800  -66862.855      394.31452     -66468.541      191.59041      192.26411      525.51808    
     40900  -66837.279      391.02025     -66446.259      191.56586      192.23926      525.73631    
     41000  -66814.665      392.72485     -66421.94       191.54516      192.21901      525.95455    
     41100  -66782.112      389.76553     -66392.347      191.52181      192.19481      526.17279    
     41200  -66749.846      390.33155     -66359.514      191.49788      192.16968      526.39103    
     41300  -66718.358      394.45569     -66323.903      191.47668      192.14785      526.60927    
     41400  -66689.481      396.31647     -66293.164      191.45421      192.12449      526.82751    
     41500  -66663.331      390.9392      -66272.392      191.43159      192.10033      527.04574    
     41600  -66637.482      390.3375      -66247.144      191.41062      192.07751      527.26398    
     41700  -66604.959      390.3143      -66214.644      191.38913      192.05542      527.48222    
     41800  -66573.969      393.39787     -66180.571      191.36664      192.03187      527.70046    
     41900  -66542.067      392.02727     -66150.04       191.34554      192.00904      527.9187     
     42000  -66516.918      392.07893     -66124.839      191.32409      191.98664      528.13694    
     42100  -66493.996      391.84993     -66102.146      191.302        191.96402      528.35517    
     42200  -66455.907      383.34312     -66072.563      191.2805       191.94125      528.57341    
     42300  -66430.096      390.61        -66039.486      191.25941      191.91834      528.79165    
     42400  -66398.054      389.81636     -66008.238      191.23904      191.89779      529.00989    
     42500  -66365.48       388.03832     -65977.442      191.2172       191.87542      529.22813    
     42600  -66339.614      393.19083     -65946.423      191.1958       191.85249      529.44637    
     42700  -66309.909      393.34567     -65916.563      191.17633      191.83266      529.66461    
     42800  -66283.393      393.99074     -65889.402      191.15483      191.81073      529.88284    
     42900  -66250.856      387.62014     -65863.235      191.13325      191.78837      530.10108    
     43000  -66223.493      388.51855     -65834.974      191.11483      191.76884      530.31932    
     43100  -66190.95       389.92304     -65801.027      191.09348      191.74787      530.53756    
     43200  -66159.464      394.15906     -65765.305      191.0707       191.72504      530.7558     
     43300  -66128.494      390.85731     -65737.636      191.05278      191.70693      530.97404    
     43400  -66096.79       384.25965     -65712.53       191.032        191.68651      531.19227    
     43500  -66076.865      392.97358     -65683.891      191.0083       191.66417      531.41051    
     43600  -66043.285      390.08567     -65653.199      190.99091      191.64683      531.62875    
     43700  -66013.804      391.20832     -65622.595      190.97225      191.62824      531.84699    
     43800  -65985.103      395.07382     -65590.029      190.9478       191.60546      532.06523    
     43900  -65950.739      396.9742      -65553.765      190.92947      191.58767      532.28347    
     44000  -65922.739      397.75373     -65524.986      190.91195      191.57053      532.5017     
     44100  -65893.897      390.84915     -65503.048      190.88813      191.5478       532.71994    
     44200  -65866.587      391.1662      -65475.421      190.86838      191.52935      532.93818    
     44300  -65835.4        388.37558     -65447.025      190.85174      191.51375      533.15642    
     44400  -65807.225      391.30274     -65415.922      190.82809      191.49111      533.37466    
     44500  -65771.66       391.92801     -65379.732      190.80709      191.47205      533.5929     
     44600  -65742.077      395.25123     -65346.826      190.79081      191.45658      533.81113    
     44700  -65712.944      391.1328      -65321.812      190.76896      191.43565      534.02937    
     44800  -65686.386      388.02119     -65298.365      190.74788      191.41578      534.24761    
     44900  -65654.646      387.5571      -65267.089      190.73137      191.40074      534.46585    
     45000  -65624.551      390.45141     -65234.099      190.71161      191.38189      534.68409    
     45100  -65594.3        393.42771     -65200.872      190.68985      191.36105      534.90233    
     45200  -65567.435      398.17323     -65169.262      190.67262      191.34543      535.12057    
     45300  -65533.813      390.23948     -65143.574      190.65328      191.32704      535.3388     
     45400  -65508.435      388.92229     -65119.513      190.63232      191.30657      535.55704    
     45500  -65475.383      385.52644     -65089.857      190.61499      191.29083      535.77528    
     45600  -65447.486      392.83        -65054.656      190.59652      191.27409      535.99352    
     45700  -65417.044      397.98816     -65019.056      190.57581      191.25392      536.21176    
     45800  -65385.667      395.30984     -64990.358      190.55756      191.23763      536.43       
     45900  -65350.894      388.05073     -64962.843      190.54004      191.22186      536.64823    
     46000  -65326.374      391.53727     -64934.837      190.51975      191.20203      536.86647    
     46100  -65295.111      388.13526     -64906.975      190.50132      191.18562      537.08471    
     46200  -65268.517      389.36697     -64879.15       190.48487      191.17021      537.30295    
     46300  -65237.363      389.29403     -64848.069      190.46579      191.15154      537.52119    
     46400  -65202.637      391.46389     -64811.173      190.44758      191.13389      537.73943    
     46500  -65173.66       394.61779     -64779.043      190.43175      191.11876      537.95766    
     46600  -65147.608      393.29969     -64754.308      190.4132       191.10045      538.1759     
     46700  -65113.333      384.57277     -64728.76       190.39458      191.08184      538.39414    
     46800  -65086.835      389.77091     -64697.064      190.37958      191.06718      538.61238    
     46900  -65054.844      391.96969     -64662.874      190.36161      191.04974      538.83062    
     47000  -65023.844      393.25336     -64630.59       190.34374      191.03068      539.04886    
     47100  -64993.714      390.17167     -64603.542      190.3292       191.01594      539.2671     
     47200  -64966.1        385.8777      -64580.223      190.31217      190.99881      539.48533    
     47300  -64934.848      386.31465     -64548.533      190.2945       190.98013      539.70357    
     47400  -64901.454      389.69337     -64511.761      190.28013      190.96414      539.92181    
     47500  -64873.619      395.22903     -64478.39       190.26306      190.94704      540.14005    
     47600  -64841.05       391.51855     -64449.532      190.24649      190.92885      540.35829    
     47700  -64808.839      388.38675     -64420.453      190.23162      190.91182      540.57653    
     47800  -64781.965      390.83004     -64391.135      190.21586      190.89501      540.79476    
     47900  -64749.114      387.05773     -64362.057      190.19904      190.87677      541.013      
     48000  -64725.135      388.09233     -64337.043      190.18435      190.85953      541.23124    
     48100  -64694.982      383.67509     -64311.307      190.16968      190.84336      541.44948    
     48200  -64663.926      389.32457     -64274.601      190.15319      190.82556      541.66772    
     48300  -64629.066      390.42391     -64238.642      190.13802      190.80846      541.88596    
     48400  -64597.527      390.6651      -64206.862      190.1237       190.7926       542.10419    
     48500  -64571.464      391.52238     -64179.941      190.1074       190.77497      542.32243    
     48600  -64543.429      387.30633     -64156.123      190.09191      190.75756      542.54067    
     48700  -64509.369      385.22671     -64124.142      190.07709      190.74108      542.75891    
     48800  -64478.901      388.40466     -64090.496      190.06174      190.72473      542.97715    
     48900  -64446.84       389.06373     -64057.776      190.04575      190.70721      543.19539    
     49000  -64420.348      395.2005      -64025.148      190.03079      190.69039      543.41362    
     49100  -64388.571      395.46818     -63993.103      190.0165       190.67482      543.63186    
     49200  -64358.462      392.44717     -63966.015      190.00021      190.65814      543.8501     
     49300  -64326.345      386.07457     -63940.271      189.98462      190.64119      544.06834    
     49400  -64298.034      388.8852      -63909.148      189.96986      190.62562      544.28658    
     49500  -64265.672      392.43111     -63873.241      189.95467      190.61049      544.50482    
     49600  -64231.322      394.95455     -63836.367      189.93922      190.59458      544.72306    
     49700  -64205.083      396.26702     -63808.816      189.92377      190.5785       544.94129    
     49800  -64177.766      392.21872     -63785.547      189.9084       190.5635       545.15953    
     49900  -64142.502      388.17658     -63754.325      189.89248      190.54831      545.37777    
     50000  -64111.922      390.11486     -63721.807      189.87636      190.53257      545.59601    
     50100  -64080.384      391.95254     -63688.431      189.86044      190.51749      545.81425    
     50200  -64050.329      393.84863     -63656.481      189.8455       190.50348      546.03249    
     50300  -64024.184      393.28828     -63630.895      189.82993      190.48893      546.25072    
     50400  -63986.119      381.70494     -63604.414      189.81425      190.47403      546.46896    
     50500  -63961.857      390.39896     -63571.458      189.79769      190.45895      546.6872     
     50600  -63924.045      389.12285     -63534.922      189.7829       190.44582      546.90544    
     50700  -63896.444      398.85602     -63497.588      189.7672       190.43123      547.12368    
     50800  -63857.575      396.74672     -63460.828      189.74901      190.415        547.34192    
     50900  -63837.8        400.20835     -63437.592      189.73417      190.40188      547.56015    
     51000  -63806.734      393.881       -63412.853      189.71985      190.38869      547.77839    
     51100  -63772.811      387.16189     -63385.649      189.70178      190.37242      547.99663    
     51200  -63742.983      387.29277     -63355.69       189.68645      190.35851      548.21487    
     51300  -63713.362      389.34808     -63324.013      189.67294      190.34572      548.43311    
     51400  -63683.37       393.14691     -63290.223      189.65547      190.32996      548.65135    
     51500  -63647.845      391.05161     -63256.793      189.63829      190.31432      548.86958    
     51600  -63619.866      392.41292     -63227.453      189.62495      190.30164      549.08782    
     51700  -63592.394      390.26168     -63202.132      189.6096       190.28758      549.30606    
     51800  -63558.113      385.9971      -63172.115      189.59228      190.27202      549.5243     
     51900  -63531.09       391.72795     -63139.362      189.57773      190.25783      549.74254    
     52000  -63493.235      392.77841     -63100.457      189.56207      190.24268      549.96078    
     52100  -63459.577      395.21324     -63064.363      189.54516      190.22744      550.17902    
     52200  -63435.262      396.8409      -63038.421      189.53071      190.21354      550.39725    
     52300  -63406.707      395.70437     -63011.002      189.51497      190.19792      550.61549    
     52400  -63374.605      391.98275     -62982.622      189.49929      190.1836       550.83373    
     52500  -63341.565      387.29543     -62954.27       189.48512      190.17047      551.05197    
     52600  -63312.738      389.16751     -62923.57       189.4687       190.15354      551.27021    
     52700  -63281.11       390.23028     -62890.88       189.45299      190.13857      551.48845    
     52800  -63248.893      391.90498     -62856.988      189.43962      190.12603      551.70668    
     52900  -63219.173      393.73995     -62825.433      189.42389      190.11001      551.92492    
     53000  -63187.443      389.07461     -62798.369      189.40807      190.0945       552.14316    
     53100  -63160.964      391.462       -62769.502      189.39416      190.08159      552.3614     
     53200  -63129.549      391.34595     -62738.203      189.37786      190.06511      552.57964    
     53300  -63092.175      389.93729     -62702.238      189.36175      190.04941      552.79788    
     53400  -63058.519      394.22412     -62664.295      189.34783      190.0365       553.01611    
     53500  -63028.524      393.77416     -62634.749      189.33189      190.02037      553.23435    
     53600  -62999.444      390.08474     -62609.359      189.31627      190.00443      553.45259    
     53700  -62971.827      392.63473     -62579.192      189.30354      189.99272      553.67083    
     53800  -62938.796      389.70984     -62549.087      189.28763      189.97643      553.88907    
     53900  -62909.373      389.13791     -62520.236      189.27066      189.95901      554.10731    
     54000  -62877.613      384.28994     -62493.323      189.25791      189.94671      554.32554    
     54100  -62848.348      384.34247     -62464.005      189.2431       189.93205      554.54378    
     54200  -62814.541      390.66565     -62423.875      189.22578      189.91443      554.76202    
     54300  -62781.131      395.04467     -62386.087      189.21201      189.90026      554.98026    
     54400  -62747.034      391.98239     -62355.052      189.19757      189.88596      555.1985     
     54500  -62718.766      390.39483     -62328.371      189.1813       189.86894      555.41674    
     54600  -62687.899      389.47044     -62298.428      189.16703      189.85352      555.63498    
     54700  -62656.593      389.85523     -62266.737      189.15249      189.83893      555.85321    
     54800  -62627.362      392.72939     -62234.633      189.13651      189.82194      556.07145    
     54900  -62596.677      388.37662     -62208.3        189.12321      189.80673      556.28969    
     55000  -62568.802      389.52893     -62179.273      189.10829      189.79171      556.50793    
     55100  -62532.777      389.29718     -62143.48       189.09242      189.77508      556.72617    
     55200  -62502.24       397.595       -62104.645      189.07888      189.75942      556.94441    
     55300  -62463.736      393.6972      -62070.039      189.06285      189.7426       557.16264    
     55400  -62437.249      389.28194     -62047.967      189.04745      189.72635      557.38088    
     55500  -62406.133      389.41366     -62016.719      189.03366      189.71141      557.59912    
     55600  -62375.526      391.84165     -61983.684      189.01803      189.69434      557.81736    
     55700  -62343.461      392.91954     -61950.542      189.00201      189.67778      558.0356     
     55800  -62310.389      390.58022     -61919.809      188.98807      189.66349      558.25384    
     55900  -62283.115      389.91111     -61893.204      188.97379      189.64675      558.47207    
     56000  -62249.337      387.69189     -61861.645      188.95683      189.6289       558.69031    
     56100  -62216.032      390.16863     -61825.863      188.94235      189.61457      558.90855    
     56200  -62183.624      395.48833     -61788.135      188.9283       189.59854      559.12679    
     56300  -62149.864      399.26522     -61750.599      188.91055      189.57995      559.34503    
     56400  -62118.001      393.70844     -61724.292      188.89571      189.56515      559.56327    
     56500  -62092.892      395.95685     -61696.935      188.88316      189.55141      559.7815     
     56600  -62057.43       389.05141     -61668.379      188.86461      189.53202      559.99974    
     56700  -62024.733      387.49623     -61637.236      188.84799      189.51577      560.21798    
     56800  -61997.183      393.40349     -61603.779      188.83595      189.50301      560.43622    
     56900  -61963.037      389.19347     -61573.843      188.81838      189.48475      560.65446    
     57000  -61929.94       383.62383     -61546.316      188.80095      189.46728      560.8727     
     57100  -61903.523      391.32043     -61512.203      188.7888       189.45471      561.09094    
     57200  -61870.848      395.95514     -61474.893      188.77162      189.4373       561.30917    
     57300  -61831.451      398.34513     -61433.106      188.75315      189.41895      561.52741    
     57400  -61798.789      399.10557     -61399.684      188.73947      189.40567      561.74565    
     57500  -61768.011      394.18918     -61373.821      188.72265      189.38899      561.96389    
     57600  -61737.129      392.02304     -61345.106      188.70487      189.37083      562.18213    
     57700  -61710.444      393.7855      -61316.658      188.69133      189.3585       562.40037    
     57800  -61671.31       384.19811     -61287.112      188.67462      189.34208      562.6186     
     57900  -61641.32       386.52328     -61254.797      188.65486      189.32241      562.83684    
     58000  -61611.839      390.61181     -61221.228      188.64098      189.30975      563.05508    
     58100  -61579.379      388.19569     -61191.184      188.62467      189.29388      563.27332    
     58200  -61548.671      387.21714     -61161.454      188.60422      189.27393      563.49156    
     58300  -61514.557      388.93257     -61125.624      188.58971      189.26067      563.7098     
     58400  -61477.534      390.88029     -61086.654      188.57461      189.24635      563.92803    
     58500  -61445.157      396.34422     -61048.813      188.55343      189.22533      564.14627    
     58600  -61414.861      393.73608     -61021.125      188.5376       189.21093      564.36451    
     58700  -61386.301      394.01324     -60992.288      188.523        189.1975       564.58275    
     58800  -61353.332      391.06086     -60962.271      188.50319      189.17783      564.80099    
     58900  -61324.716      394.24321     -60930.473      188.48516      189.1603       565.01923    
     59000  -61290.984      393.11349     -60897.871      188.471        189.14777      565.23747    
     59100  -61258.11       388.70448     -60869.406      188.45153      189.12861      565.4557     
     59200  -61227.482      389.80218     -60837.68       188.43374      189.11075      565.67394    
     59300  -61194.676      393.51469     -60801.161      188.41867      189.09683      565.89218    
     59400  -61158.884      393.0443      -60765.84       188.39861      189.0781       566.11042    
     59500  -61123.434      390.5451      -60732.889      188.38066      189.06019      566.32866    
     59600  -61094.512      389.14892     -60705.363      188.36583      189.04557      566.5469     
     59700  -61060.204      388.39883     -60671.805      188.3471       189.0274       566.76513    
     59800  -61029.381      394.05936     -60635.322      188.3291       189.00995      566.98337    
     59900  -60994.501      394.50609     -60599.995      188.31362      188.99408      567.20161    
     60000  -60960.687      388.3627      -60572.324      188.29467      188.97495      567.41985    
     60100  -60927.996      388.75352     -60539.243      188.27697      188.95753      567.63809    
     60200  -60899.2        395.28445     -60503.915      188.26137      188.94214      567.85633    
     60300  -60865.827      395.39332     -60470.434      188.24204      188.92263      568.07456    
     60400  -60830.801      388.63315     -60442.167      188.22521      188.90565      568.2928     
     60500  -60801.28       394.30779     -60406.972      188.20948      188.88965      568.51104    
     60600  -60759.868      388.70438     -60371.164      188.18927      188.86967      568.72928    
     60700  -60728.143      393.01749     -60335.126      188.17129      188.85179      568.94752    
     60800  -60699.095      392.86582     -60306.229      188.15628      188.8366       569.16576    
     60900  -60662.795      388.35114     -60274.444      188.13792      188.81795      569.38399    
     61000  -60625.877      387.55137     -60238.325      188.11863      188.79925      569.60223    
     61100  -60595.547      394.18106     -60201.366      188.10189      188.78306      569.82047    
     61200  -60560.049      388.16771     -60171.881      188.08345      188.76422      570.03871    
     61300  -60529.068      389.87228     -60139.196      188.0652       188.74576      570.25695    
     61400  -60491.525      389.2281      -60102.297      188.04783      188.72846      570.47519    
     61500  -60459.004      391.41912     -60067.585      188.02887      188.70948      570.69343    
     61600  -60429.356      390.48944     -60038.867      188.0111       188.69113      570.91166    
     61700  -60395.171      392.20259     -60002.969      187.9946       188.67485      571.1299     
     61800  -60353.837      389.23137     -59964.606      187.97495      188.65476      571.34814    
     61900  -60320.715      391.32399     -59929.391      187.95656      188.63541      571.56638    
     62000  -60292.25       392.00421     -59900.246      187.94058      188.61885      571.78462    
     62100  -60255.568      390.79241     -59864.776      187.92189      188.59982      572.00286    
     62200  -60220.78       393.10372     -59827.677      187.90355      188.58071      572.22109    
     62300  -60185.402      391.54093     -59793.861      187.8862       188.56262      572.43933    
     62400  -60153.672      391.25658     -59762.415      187.86696      188.54271      572.65757    
     62500  -60111.959      386.64432     -59725.315      187.84933      188.52454      572.87581    
     62600  -60074.869      387.3081      -59687.561      187.83166      188.50578      573.09405    
     62700  -60041.717      388.85316     -59652.864      187.81205      188.48537      573.31229    
     62800  -60007.352      388.27025     -59619.081      187.79489      188.46772      573.53052    
     62900  -59976.562      394.78397     -59581.778      187.77736      188.4493       573.74876    
     63000  -59941.087      394.69087     -59546.396      187.75713      188.42836      573.967      
     63100  -59906.721      394.17853     -59512.542      187.74001      188.41112      574.18524    
     63200  -59865.699      387.84861     -59477.85       187.72246      188.39297      574.40348    
     63300  -59833.487      391.84633     -59441.641      187.70205      188.37179      574.62172    
     63400  -59798.938      393.43698     -59405.501      187.68546      188.35523      574.83995    
     63500  -59760.977      391.74437     -59369.233      187.66667      188.33616      575.05819    
     63600  -59725.882      394.12245     -59331.759      187.64619      188.31518      575.27643    
     63700  -59686.785      391.34832     -59295.437      187.63025      188.29893      575.49467    
     63800  -59652.579      391.66487     -59260.914      187.61058      188.27919      575.71291    
     63900  -59618.784      393.82414     -59224.96       187.5908       188.25926      575.93115    
     64000  -59580.367      392.41306     -59187.954      187.57425      188.24254      576.14939    
     64100  -59542.48       391.48282     -59150.997      187.55411      188.22224      576.36762    
     64200  -59508.789      394.95019     -59113.839      187.53525      188.20368      576.58586    
     64300  -59473.213      396.0139      -59077.199      187.51822      188.18681      576.8041     
     64400  -59431.758      390.87958     -59040.878      187.49722      188.16582      577.02234    
     64500  -59395.616      392.6514      -59002.965      187.47864      188.14768      577.24058    
     64600  -59359.074      392.77489     -58966.299      187.46097      188.13028      577.45882    
     64700  -59321.498      392.75022     -58928.748      187.44049      188.1102       577.67705    
     64800  -59284.015      393.07889     -58890.936      187.42275      188.09274      577.89529    
     64900  -59244.05       391.81997     -58852.23       187.40394      188.07428      578.11353    
     65000  -59207.032      393.04194     -58813.99       187.38325      188.05393      578.33177    
     65100  -59167.273      391.64163     -58775.632      187.36574      188.03696      578.55001    
     65200  -59133.598      394.84736     -58738.751      187.34698      188.01883      578.76825    
     65300  -59092.919      392.32209     -58700.597      187.32611      187.99892      578.98648    
     65400  -59054.627      392.51958     -58662.107      187.30864      187.98213      579.20472    
     65500  -59019.988      395.84518     -58624.142      187.2894       187.96342      579.42296    
     65600  -58978.276      393.28788     -58584.988      187.26855      187.94341      579.6412     
     65700  -58936.845      390.91028     -58545.934      187.25104      187.927        579.85944    
     65800  -58903.902      396.09109     -58507.81       187.23217      187.90908      580.07768    
     65900  -58862.327      393.46401     -58468.863      187.21179      187.88922      580.29591    
     66000  -58824.952      396.31374     -58428.638      187.19489      187.87313      580.51415    
     66100  -58787.891      398.76017     -58389.131      187.17529      187.85485      580.73239    
     66200  -58741.797      393.06877     -58348.728      187.1555       187.83552      580.95063    
     66300  -58702.991      393.90367     -58309.087      187.13887      187.81868      581.16887    
     66400  -58663.951      394.70661     -58269.244      187.11965      187.80017      581.38711    
     66500  -58621.485      392.29754     -58229.187      187.10077      187.7826       581.60535    
     66600  -58586.058      396.85015     -58189.208      187.08379      187.76582      581.82358    
     66700  -58542          392.89911     -58149.1        187.06495      187.74662      582.04182    
     66800  -58504.291      396.93154     -58107.36       187.04625      187.72859      582.26006    
     66900  -58461.686      395.60008     -58066.085      187.02857      187.7117       582.4783     
     67000  -58418.37       392.77486     -58025.595      187.01061      187.69336      582.69654    
     67100  -58376.167      391.95257     -57984.215      186.99332      187.67584      582.91478    
     67200  -58334.662      391.16799     -57943.494      186.97639      187.65817      583.13301    
     67300  -58296.869      395.85539     -57901.013      186.95873      187.64071      583.35125    
     67400  -58257.008      397.53772     -57859.47       186.9416       187.62368      583.56949    
     67500  -58215.055      398.12966     -57816.925      186.92427      187.60542      583.78773    
     67600  -58171.37       396.22767     -57775.142      186.90797      187.58776      584.00597    
     67700  -58123.987      391.23714     -57732.75       186.89087      187.57046      584.22421    
     67800  -58086.429      396.29477     -57690.134      186.87356      187.5531       584.44244    
     67900  -58048.762      400.91678     -57647.845      186.85783      187.53606      584.66068    
     68000  -57995.74       391.78832     -57603.952      186.84117      187.51807      584.87892    
     68100  -57956.998      395.5338      -57561.464      186.82482      187.50115      585.09716    
     68200  -57913.356      396.56182     -57516.794      186.809        187.48445      585.3154     
     68300  -57863.999      390.2261      -57473.773      186.79262      187.46711      585.53364    
     68400  -57829.011      397.21922     -57431.792      186.77715      187.45059      585.75187    
     68500  -57783.046      395.33245     -57387.713      186.76095      187.43372      585.97011    
     68600  -57739.04       395.14994     -57343.89       186.74507      187.41685      586.18835    
     68700  -57690.496      391.55863     -57298.938      186.73006      187.40096      586.40659    
     68800  -57647.931      394.96767     -57252.964      186.71492      187.38485      586.62483    
     68900  -57603.288      394.78092     -57208.507      186.69905      187.36825      586.84307    
     69000  -57559.67       394.08886     -57165.581      186.68347      187.35188      587.06131    
     69100  -57518.955      398.69977     -57120.255      186.66972      187.33705      587.27954    
     69200  -57468.09       392.65796     -57075.432      186.65467      187.32128      587.49778    
     69300  -57422.934      393.05021     -57029.884      186.6387       187.30492      587.71602    
     69400  -57379.809      394.59991     -56985.209      186.62541      187.29091      587.93426    
     69500  -57340.306      401.24315     -56939.063      186.61031      187.27504      588.1525     
     69600  -57284.645      392.4965      -56892.148      186.59533      187.25952      588.37074    
     69700  -57246.045      398.55026     -56847.494      186.58294      187.2466       588.58897    
     69800  -57195.358      394.77177     -56800.586      186.5678       187.23088      588.80721    
     69900  -57152.451      398.76339     -56753.687      186.55337      187.21586      589.02545    
     70000  -57104.672      397.42474     -56707.247      186.54109      187.20299      589.24369    
     70100  -57060.948      400.09459     -56660.854      186.52614      187.18756      589.46193    
     70200  -57018.453      403.20175     -56615.252      186.51253      187.17408      589.68017    
     70300  -56966.538      398.12136     -56568.417      186.49974      187.16121      589.8984     
     70400  -56919.198      398.32952     -56520.868      186.48524      187.14629      590.11664    
     70500  -56874.13       401.10945     -56473.02       186.47228      187.13346      590.33488    
     70600  -56818.823      396.19767     -56422.626      186.45939      187.1211       590.55312    
     70700  -56775.435      402.03422     -56373.401      186.44542      187.10689      590.77136    
     70800  -56723.796      399.26922     -56324.527      186.43293      187.09412      590.9896     
     70900  -56674.504      399.23399     -56275.27       186.42026      187.08215      591.20784    
     71000  -56623.164      397.24227     -56225.922      186.40691      187.06934      591.42607    
     71100  -56578.741      400.6645      -56178.076      186.39425      187.0568       591.64431    
     71200  -56529.52       402.34983     -56127.17       186.38156      187.04469      591.86255    
     71300  -56483.981      405.24541     -56078.736      186.36851      187.03242      592.08079    
     71400  -56430.984      399.23606     -56031.747      186.35675      187.02121      592.29903    
     71500  -56383.11       401.12905     -55981.981      186.34392      187.00905      592.51727    
     71600  -56332.334      399.59141     -55932.743      186.33125      186.99707      592.7355     
     71700  -56288.771      408.10539     -55880.666      186.31985      186.98656      592.95374    
     71800  -56233.518      404.59338     -55828.925      186.30667      186.97422      593.17198    
     71900  -56183.447      405.32362     -55778.123      186.29478      186.96361      593.39022    
     72000  -56131.562      404.3812      -55727.181      186.28361      186.95338      593.60846    
     72100  -56083.913      407.68854     -55676.225      186.27023      186.94075      593.8267     
     72200  -56032.497      407.14691     -55625.35       186.25959      186.93079      594.04493    
     72300  -55980.942      408.1957      -55572.747      186.24857      186.92095      594.26317    
     72400  -55930.066      408.75797     -55521.308      186.23503      186.90869      594.48141    
     72500  -55879.062      410.1729      -55468.889      186.22456      186.89888      594.69965    
     72600  -55826.977      409.31412     -55417.663      186.21393      186.88903      594.91789    
[...]
     81600  -72756.095      508.53149     -72247.564      186.99085      187.72418      614.55934    
     81700  -72954.779      495.91023     -72458.869      187.01757      187.74867      614.77758    
     81800  -73140.456      483.43872     -72657.018      187.04446      187.7733       614.99582    
     81900  -73313.493      471.31296     -72842.18       187.07124      187.79779      615.21406    
     82000  -73473.87       459.44436     -73014.426      187.09775      187.82201      615.4323     
     82100  -73621.661      447.94242     -73173.719      187.12458      187.84656      615.65054    
     82200  -73756.808      436.85625     -73319.952      187.15145      187.87115      615.86877    
     82300  -73878.948      426.02893     -73452.919      187.17842      187.89584      616.08701    
     82400  -73988.071      415.78509     -73572.286      187.20593      187.9211       616.30525    
     82500  -74083.76       406.20297     -73677.557      187.23373      187.94665      616.52349    
     82600  -74165.473      397.45941     -73768.013      187.26204      187.97274      616.74173    
     82700  -74232.779      390.16336     -73842.616      187.29114      187.99964      616.95997    
     82800  -74287.125      386.40305     -73900.722      187.3195       188.02588      617.17821    
     82900  -74329.218      385.35641     -73943.862      187.34724      188.05157      617.39644    
     83000  -74358.63       384.54619     -73974.084      187.37508      188.0774       617.61468    
     83100  -74375.205      383.49983     -73991.705      187.40308      188.1035       617.83292    
     83200  -74378.842      383.19804     -73995.644      187.43118      188.1298       618.05116    
     83300  -74368.806      383.35022     -73985.455      187.45848      188.15535      618.2694     
     83400  -74342.88       381.41891     -73961.461      187.48288      188.17796      618.48764    
     83500  -74298.952      377.0212      -73921.931      187.50687      188.20017      618.70587    
     83600  -74236.052      371.6794      -73864.373      187.53025      188.22191      618.92411    
     83700  -74154.825      364.61256     -73790.212      187.55124      188.24144      619.14235    
     83800  -74056.154      352.71039     -73703.443      187.57337      188.26217      619.36059    
     83900  -73938.062      331.64072     -73606.421      187.59325      188.28063      619.57883    
     84000  -73803.39       302.14337     -73501.246      187.61285      188.29874      619.79707    
     84100  -73656.686      262.94927     -73393.737      187.63264      188.31706      620.0153     
     84200  -73546.937      258.72396     -73288.213      187.64865      188.33171      620.23354    
     84300  -73513.736      343.99702     -73169.739      187.6495       188.33296      620.45178    
     84400  -73523.734      457.88362     -73065.851      187.63277      188.31551      620.67002    
     84500  -73604.377      485.31714     -73119.06       187.63626      188.32115      620.88826    
     84600  -73671.471      396.11851     -73275.353      187.66408      188.34416      621.1065     
     84700  -73697.467      341.20548     -73356.262      187.67978      188.3577       621.32473    
     84800  -73707.843      361.02314     -73346.82       187.6899       188.36359      621.54297    
     84900  -73685.94       404.76374     -73281.176      187.70573      188.37829      621.76121    
     85000  -73691.578      448.20891     -73243.369      187.72431      188.39603      621.97945    
     85100  -73751.991      434.98367     -73317.007      187.75428      188.42831      622.19769    
     85200  -73782.673      364.08013     -73418.593      187.77879      188.45522      622.41593    
     85300  -73814.334      359.28935     -73455.045      187.80599      188.48609      622.63417    
     85400  -73828.132      386.8239      -73441.308      187.83393      188.5256       622.8524     
     85500  -73825.832      408.00431     -73417.828      187.85626      188.54768      623.07064    
     85600  -73823.366      397.873       -73425.493      187.88116      188.5652       623.28888    
     85700  -73820.518      373.60148     -73446.916      187.90538      188.58938      623.50712    
     85800  -73839.85       390.15198     -73449.698      187.9445       188.61993      623.72536    
     85900  -73832.149      385.48962     -73446.66       187.9777       188.64445      623.9436     
     86000  -73824.61       390.1635      -73434.446      188.01911      188.67625      624.16183    
     86100  -73822.639      399.28256     -73423.356      188.04719      188.69533      624.38007    
     86200  -73819.19       392.2675      -73426.922      188.08002      188.71726      624.59831    
     86300  -73832.206      396.14728     -73436.059      188.1225       188.74334      624.81655    
     86400  -73845.135      391.60808     -73453.527      188.16396      188.77213      625.03479    
     86500  -73845.024      380.08652     -73464.938      188.20096      188.79495      625.25303    
     86600  -73836.575      384.74104     -73451.834      188.24044      188.81789      625.47126    
     86700  -73825.909      398.47513     -73427.434      188.27641      188.83802      625.6895     
     86800  -73826.333      408.08256     -73418.25       188.31864      188.85881      625.90774    
     86900  -73833.773      400.04172     -73433.732      188.35915      188.87567      626.12598    
     87000  -73851.453      386.97223     -73464.481      188.39946      188.89373      626.34422    
     87100  -73868.404      380.34599     -73488.058      188.44798      188.91228      626.56246    
     87200  -73875.126      382.57692     -73492.55       188.49119      188.92864      626.78069    
     87300  -73876.147      394.08311     -73482.064      188.53491      188.95269      626.99893    
     87400  -73871.074      392.91319     -73478.161      188.57384      188.97681      627.21717    
     87500  -73871.005      385.9769      -73485.028      188.61141      188.99862      627.43541    
     87600  -73881.074      390.00475     -73491.069      188.64011      189.01533      627.65365    
     87700  -73881.345      385.6191      -73495.726      188.66587      189.03686      627.87189    
     87800  -73885.823      390.32109     -73495.502      188.68429      189.05335      628.09013    
     87900  -73880.566      385.15591     -73495.41       188.70631      189.07649      628.30836    
     88000  -73892.401      398.94291     -73493.458      188.72451      189.09293      628.5266     
     88100  -73893.766      389.97261     -73503.793      188.7449       189.11478      628.74484    
     88200  -73908.748      388.43705     -73520.31       188.76791      189.13397      628.96308    
     88300  -73916.308      380.86576     -73535.442      188.78948      189.15057      629.18132    
     88400  -73920.508      386.40624     -73534.102      188.81057      189.16864      629.39956    
     88500  -73919.649      394.07291     -73525.576      188.83016      189.18642      629.61779    
     88600  -73921.604      397.70151     -73523.903      188.84324      189.1973       629.83603    
     88700  -73931.765      398.83054     -73532.935      188.86023      189.215        630.05427    
     88800  -73935.275      384.37968     -73550.896      188.87555      189.23274      630.27251    
     88900  -73937.767      382.07623     -73555.691      188.88322      189.241        630.49075    
     89000  -73932.735      388.59999     -73544.135      188.89503      189.26007      630.70899    
     89100  -73929.5        400.68485     -73528.815      188.90075      189.27556      630.92722    
     89200  -73931.295      403.88578     -73527.409      188.91329      189.29393      631.14546    
     89300  -73940.512      395.5999      -73544.912      188.92839      189.31767      631.3637     
     89400  -73951.606      386.23833     -73565.368      188.93233      189.33326      631.58194    
     89500  -73955.637      382.45102     -73573.186      188.94469      189.35235      631.80018    
     89600  -73953.814      389.50538     -73564.308      188.95344      189.3705       632.01842    
     89700  -73948.944      396.36502     -73552.579      188.95531      189.38146      632.23665    
     89800  -73948.779      395.75818     -73553.021      188.96195      189.40035      632.45489    
     89900  -73958.106      392.1153      -73565.991      188.96357      189.41297      632.67313    
     90000  -73962.048      381.37777     -73580.67       188.96884      189.42491      632.89137    
     90100  -73970.398      386.455       -73583.943      188.97331      189.43247      633.10961    
     90200  -73973.03       393.05462     -73579.975      188.977        189.43816      633.32785    
     90300  -73970.164      393.84347     -73576.321      188.98251      189.43957      633.54609    
     90400  -73972.835      395.45261     -73577.383      188.9863       189.4383       633.76432    
     90500  -73976.993      390.384       -73586.609      188.99212      189.43174      633.98256    
     90600  -73975.746      382.39106     -73593.355      188.99776      189.42294      634.2008     
     90700  -73973.987      386.71095     -73587.276      189.00384      189.41744      634.41904    
     90800  -73972.039      395.64819     -73576.391      189.00278      189.41593      634.63728    
     90900  -73971.625      397.0153      -73574.61       188.99368      189.41148      634.85552    
     91000  -73977.745      391.54939     -73586.195      188.98272      189.40419      635.07375    
     91100  -73981.703      385.68182     -73596.021      188.97216      189.39847      635.29199    
     91200  -73981.22       384.88668     -73596.334      188.95549      189.39769      635.51023    
     91300  -73980.244      391.9849      -73588.259      188.93741      189.40034      635.72847    
     91400  -73983.785      398.30123     -73585.484      188.91635      189.4019       635.94671    
     91500  -73985.324      390.16464     -73595.159      188.8917       189.40344      636.16495    
     91600  -73990.518      383.3567      -73607.161      188.86978      189.4075       636.38318    
     91700  -73997.409      388.1836      -73609.225      188.84964      189.4071       636.60142    
     91800  -73995.523      390.00434     -73605.519      188.83734      189.4069       636.81966    
     91900  -73997.758      392.5865      -73605.172      188.82444      189.40251      637.0379     
     92000  -74000.216      390.02791     -73610.188      188.813        189.39993      637.25614    
     92100  -74003.319      389.46096     -73613.858      188.80861      189.39643      637.47438    
     92200  -74001.566      391.19612     -73610.369      188.79985      189.3911       637.69262    
     92300  -73994.352      391.38587     -73602.966      188.78943      189.3924       637.91085    
     92400  -73996.472      397.14657     -73599.326      188.77994      189.39259      638.12909    
     92500  -73998.944      392.15214     -73606.791      188.77591      189.3935       638.34733    
     92600  -74001.389      385.2199      -73616.17       188.77172      189.38632      638.56557    
     92700  -74005.53       389.21813     -73616.311      188.77296      189.38187      638.78381    
     92800  -74004.11       392.78363     -73611.327      188.77748      189.38352      639.00205    
     92900  -74004.172      392.30605     -73611.866      188.77422      189.37843      639.22028    
     93000  -74005.503      386.93933     -73618.563      188.77115      189.37679      639.43852    
     93100  -74011.909      388.81662     -73623.093      188.77013      189.37799      639.65676    
     93200  -74014.756      390.78587     -73623.97       188.77077      189.37779      639.875      
     93300  -74005.766      384.49547     -73621.27       188.77465      189.37814      640.09324    
     93400  -74000.296      387.79377     -73612.502      188.77449      189.38123      640.31148    
     93500  -73999.788      397.63045     -73602.158      188.77479      189.3888       640.52971    
     93600  -74001.643      399.93017     -73601.713      188.77461      189.40009      640.74795    
     93700  -74005.64       390.71315     -73614.927      188.77138      189.40744      640.96619    
     93800  -74007.661      382.34346     -73625.317      188.7713       189.41696      641.18443    
     93900  -74006.636      387.49663     -73619.14       188.76649      189.42533      641.40267    
     94000  -73995.597      391.12477     -73604.472      188.76528      189.43898      641.62091    
     94100  -73989.326      397.40567     -73591.921      188.75686      189.44782      641.83914    
     94200  -73988.457      395.15962     -73593.298      188.75255      189.45876      642.05738    
     94300  -74001.033      392.34073     -73608.692      188.75062      189.47007      642.27562    
     94400  -74003.258      377.49748     -73625.76       188.74761      189.47788      642.49386    
     94500  -74009.084      384.22292     -73624.861      188.74618      189.48757      642.7121     
     94600  -73993.744      388.36423     -73605.38       188.74127      189.49326      642.93034    
     94700  -73984.718      400.61066     -73584.107      188.73727      189.49957      643.14858    
     94800  -73990.243      406.17161     -73584.071      188.74063      189.50895      643.36681    
     94900  -74000.13       391.6336      -73608.497      188.74149      189.51361      643.58505    
     95000  -74010.51       380.87737     -73629.632      188.74269      189.51977      643.80329    
     95100  -74010.785      381.22625     -73629.558      188.7498       189.5302       644.02153    
     95200  -74001.503      390.02073     -73611.482      188.7476       189.52894      644.23977    
     95300  -73988.44       398.06652     -73590.373      188.75471      189.52726      644.45801    
     95400  -73984.961      400.90859     -73584.052      188.76011      189.52049      644.67624    
     95500  -73989.612      392.47084     -73597.141      188.7627       189.51009      644.89448    
     95600  -73994.836      381.91645     -73612.919      188.77133      189.50584      645.11272    
     95700  -74001.284      387.08081     -73614.203      188.77792      189.4985       645.33096    
     95800  -73999.264      393.3849      -73605.879      188.79396      189.49453      645.5492     
     95900  -74001.931      398.46328     -73603.468      188.80397      189.48752      645.76744    
     96000  -74005.009      391.08204     -73613.927      188.81196      189.47723      645.98567    
     96100  -74010.529      385.61956     -73624.909      188.81911      189.46495      646.20391    
     96200  -74008.734      384.40674     -73624.327      188.82688      189.454        646.42215    
     96300  -74004.205      389.01117     -73615.194      188.83657      189.44406      646.64039    
     96400  -74002.733      395.61094     -73607.122      188.84511      189.43462      646.85863    
     96500  -74002.146      395.81099     -73606.335      188.85302      189.42858      647.07687    
     96600  -74004.753      391.98364     -73612.769      188.8665       189.42551      647.2951     
     96700  -74012.247      391.26126     -73620.985      188.87882      189.42158      647.51334    
     96800  -74016.931      388.76578     -73628.166      188.88703      189.41461      647.73158    
     96900  -74014.579      386.37777     -73628.201      188.89576      189.4126       647.94982    
     97000  -74006.965      388.82808     -73618.136      188.90155      189.41175      648.16806    
     97100  -74011.755      400.70462     -73611.05       188.90754      189.41443      648.3863     
     97200  -74017.743      398.80081     -73618.942      188.91125      189.41782      648.60454    
     97300  -74025.29       390.60137     -73634.688      188.9161       189.4217       648.82277    
     97400  -74035.41       388.27963     -73647.13       188.92285      189.4284       649.04101    
     97500  -74040.05       387.6464      -73652.404      188.92851      189.43447      649.25925    
     97600  -74041.006      388.22038     -73652.786      188.93272      189.44403      649.47749    
     97700  -74036.497      388.78582     -73647.712      188.93486      189.45578      649.69573    
     97800  -74025.928      383.02775     -73642.9        188.93266      189.46382      649.91397    
     97900  -74021.706      389.6292      -73632.077      188.93203      189.47041      650.1322     
     98000  -74019.103      395.06249     -73624.04       188.93396      189.47737      650.35044    
     98100  -74026.421      396.66481     -73629.757      188.93806      189.48324      650.56868    
     98200  -74027.548      386.09527     -73641.453      188.9427       189.49124      650.78692    
     98300  -74030.75       386.53799     -73644.212      188.94366      189.49656      651.00516    
     98400  -74025.96       387.85038     -73638.11       188.94285      189.50154      651.2234     
     98500  -74020.073      391.74029     -73628.333      188.94305      189.50743      651.44163    
     98600  -74014.5        392.41856     -73622.081      188.93942      189.5092       651.65987    
     98700  -74024.232      399.17422     -73625.058      188.93773      189.51636      651.87811    
     98800  -74023.008      384.25108     -73638.757      188.93663      189.52127      652.09635    
     98900  -74028.729      382.16037     -73646.569      188.93239      189.52405      652.31459    
     99000  -74025.306      383.00125     -73642.304      188.93094      189.53019      652.53283    
     99100  -74027.875      398.4136      -73629.462      188.92414      189.53242      652.75106    
     99200  -74023.879      397.33426     -73626.545      188.9217       189.5391       652.9693     
     99300  -74032.088      394.46083     -73637.627      188.9185       189.54362      653.18754    
     99400  -74038.779      387.49402     -73651.285      188.90934      189.54095      653.40578    
     99500  -74044.992      388.8473      -73656.144      188.90719      189.54264      653.62402    
     99600  -74035.184      386.80398     -73648.38       188.90314      189.54254      653.84226    
     99700  -74022.532      387.8774      -73634.655      188.89707      189.53657      654.0605     
     99800  -74025.33       399.72716     -73625.602      188.9          189.53606      654.27873    
     99900  -74027.734      397.26751     -73630.467      188.89933      189.53093      654.49697    
    100000  -74032.479      386.24217     -73646.237      188.89638      189.52339      654.71521    
Loop time of 1616.85 on 12 procs for 100000 steps with 10080 atoms

Performance: 5.344 ns/day, 4.491 hours/ns, 61.849 timesteps/s, 623.436 katom-step/s
92.9% CPU use with 12 MPI tasks x 1 OpenMP threads

MPI task timing breakdown:
Section |  min time  |  avg time  |  max time  |%varavg| %total
---------------------------------------------------------------
Pair    | 1047.4     | 1236.5     | 1400.6     | 264.6 | 76.48
Neigh   | 3.7881     | 6.3329     | 8.1635     |  61.1 |  0.39
Comm    | 171.15     | 334.17     | 521.47     | 505.9 | 20.67
Output  | 0.41431    | 0.44823    | 0.49156    |   3.5 |  0.03
Modify  | 34.467     | 37.734     | 43.368     |  57.0 |  2.33
Other   |            | 1.661      |            |       |  0.10

Nlocal:            840 ave        1458 max         215 min
Histogram: 3 0 1 0 0 3 2 0 2 1
Nghost:        2923.92 ave        4667 max        1055 min
Histogram: 4 0 0 0 0 3 1 0 1 3
Neighs:              0 ave           0 max           0 min
Histogram: 12 0 0 0 0 0 0 0 0 0

Total # of neighbors = 0
Ave neighs/atom = 0
Neighbor list builds = 571
Dangerous builds = 0
Total wall time: 0:26:57
