LAMMPS (2 Aug 2023 - Update 3)
OMP_NUM_THREADS environment is not set. Defaulting to 1 thread. (src/comm.cpp:98)
  using 1 OpenMP thread(s) per MPI task

# 1------general---------------
units                             metal      #单位为lammps 中的metel 类型
dimension                    3          #模拟的维度 三维
boundary                    p p p      #周期边界条件
atom_style                  atomic   #原子类型自动
atom_modify              map array sort 100 2.0
neighbor                    3.0 bin
neigh_modify            every 1 delay 0 check yes
#2 -----global variable-------定义全局变量，方便统一修改；
variable temperature equal 300
variable tstep equal 0.001
variable pressure equal 0
variable thermalstep equal 100
variable dumpstep equal 1000
variable relaxtime equal 0
variable totaltime equal 100000
variable deformrate equal 5e-3
#3 -------model------------
#box tilt large
read_data     1.lmp
Reading data file ...
  orthogonal box = (-100 -100 -2.3312511) to (100 100 38.891558)
  3 by 4 by 1 MPI processor grid
  reading atoms ...
  784 atoms
  read_data CPU = 0.009 seconds
replicate 1 1 1
Replication is creating a 1x1x1 = 1 times larger system...
  orthogonal box = (-100 -100 -2.3312511) to (100 100 38.891558)
  3 by 4 by 1 MPI processor grid
  784 atoms
  replicate CPU = 0.280 seconds
write_data l.data
System init for write_data ...
WARNING: Communication cutoff is 0.0. No ghost atoms will be generated. Atoms may get lost. (src/comm_brick.cpp:210)

pair_style hybrid airebo 3.0 airebo 3.0  lj/cut 10
pair_coeff * * airebo 1 CH.airebo C NULL
Reading airebo potential file CH.airebo with DATE: 2011-10-25
pair_coeff * * airebo 2 CH.airebo NULL C
Reading airebo potential file CH.airebo with DATE: 2011-10-25
pair_coeff 1 2 lj/cut 0.00456 3.431

# 5------minimize -----------
min_style      sd
minimize       1.0e-4 1.0e-6 100 1000
Neighbor list info ...
  update: every = 1 steps, delay = 0 steps, check = yes
  max neighbors/atom: 2000, page size: 100000
  master list distance cutoff = 13.2
  ghost atom cutoff = 13.2
  binsize = 6.6, bins = 31 31 7
  5 neighbor lists, perpetual/occasional/extra = 5 0 0
  (1) pair airebo, perpetual, skip from (4)
      attributes: full, newton on, ghost
      pair build: skip/ghost
      stencil: none
      bin: none
  (2) pair airebo, perpetual, skip from (4)
      attributes: full, newton on, ghost
      pair build: skip/ghost
      stencil: none
      bin: none
  (3) pair lj/cut, perpetual, skip from (5)
      attributes: half, newton on, cut 13
      pair build: skip
      stencil: none
      bin: none
  (4) neighbor class addition, perpetual
      attributes: full, newton on, ghost
      pair build: full/bin/ghost
      stencil: full/ghost/bin/3d
      bin: standard
  (5) neighbor class addition, perpetual
      attributes: half, newton on, cut 13
      pair build: half/bin/atomonly/newton
      stencil: half/bin/3d
      bin: standard
Per MPI rank memory allocation (min/avg/max) = 8.246 | 8.405 | 9.579 Mbytes
   Step          Temp          E_pair         E_mol          TotEng         Press     
         0   0             -4163.5469      0             -4163.5469      6493.3023    
        22   0             -5538.2553      0             -5538.2553      191.11314    
Loop time of 0.978602 on 12 procs for 22 steps with 784 atoms

85.3% CPU use with 12 MPI tasks x 1 OpenMP threads

Minimization stats:
  Stopping criterion = energy tolerance
  Energy initial, next-to-last, final = 
     -4163.54689739925  -5537.82713505881  -5538.25526107341
  Force two-norm initial, final = 1009.7269 8.7877108
  Force max component initial, final = 135.10344 1.8602613
  Final line search alpha, max atom move = 0.048367349 0.089975905
  Iterations, force evaluations = 22 39

MPI task timing breakdown:
Section |  min time  |  avg time  |  max time  |%varavg| %total
---------------------------------------------------------------
Pair    | 3.3438e-05 | 0.040834   | 0.24485    |  45.1 |  4.17
Neigh   | 0          | 0          | 0          |   0.0 |  0.00
Comm    | 1.3554e-05 | 0.0013352  | 0.0079666  |   8.0 |  0.14
Output  | 0          | 0          | 0          |   0.0 |  0.00
Modify  | 0          | 0          | 0          |   0.0 |  0.00
Other   |            | 0.9364     |            |       | 95.69

Nlocal:        65.3333 ave         409 max           0 min
Histogram: 10 0 0 0 0 0 0 0 0 2
Nghost:            147 ave         899 max           0 min
Histogram: 10 0 0 0 0 0 0 0 0 2
Neighs:              0 ave           0 max           0 min
Histogram: 12 0 0 0 0 0 0 0 0 0

Total # of neighbors = 0
Ave neighs/atom = 0
Neighbor list builds = 0
Dangerous builds = 0
#6----define computes------
variable nums equal count(all) #计算原子数目
variable toval equal 13.369*13.369*lz #计算系统总体积，单层石墨烯厚度为0.335nm
variable vol equal ${toval} #体系的初始体积
variable vol equal 7367.75932879863 
variable vatom equal v_vol/v_nums #单个原子体积
compute 1 all stress/atom NULL #计算体系中单原子应力
compute xalls all reduce sum c_1[1]
variable xstress equal (c_xalls)/(v_toval*10000)
compute yalls all reduce sum c_1[2]
variable ystress equal (c_yalls)/(v_toval*10000)
compute zalls all reduce sum c_1[3]
variable zstress equal (c_zalls)/(v_toval*10000)
#7---------relaxation-------------------------
timestep ${tstep}
timestep 0.001
#------------5 温度初始化------------------------------
velocity all create 300 4928459 dist gaussian units box
#------------------------------------------------------
dump   1 all atom 100 all-cy.lammpstrj
#fix    1 all npt temp 300 300  0.1 aniso 0 0  drag 1  #三个方向独立控压
fix  s all npt temp ${temperature} ${temperature} 0.1 y ${pressure} ${pressure} 10 x ${pressure} ${pressure} 10
fix  s all npt temp 300 ${temperature} 0.1 y ${pressure} ${pressure} 10 x ${pressure} ${pressure} 10
fix  s all npt temp 300 300 0.1 y ${pressure} ${pressure} 10 x ${pressure} ${pressure} 10
fix  s all npt temp 300 300 0.1 y 0 ${pressure} 10 x ${pressure} ${pressure} 10
fix  s all npt temp 300 300 0.1 y 0 0 10 x ${pressure} ${pressure} 10
fix  s all npt temp 300 300 0.1 y 0 0 10 x 0 ${pressure} 10
fix  s all npt temp 300 300 0.1 y 0 0 10 x 0 0 10
thermo                1000
thermo_modify       lost ignore
compute  2 all pe/atom
compute  pe all reduce sum c_2
variable PE equal "c_pe"
fix    pe all print 100 "${PE} " file PE.txt screen no
thermo  ${thermalstep}
thermo  100
#thermo_style  custom step pe ke etotal lx ly lz
run   ${relaxtime}
run   0
Per MPI rank memory allocation (min/avg/max) = 8.871 | 9.03 | 10.2 Mbytes
   Step          Temp          E_pair         E_mol          TotEng         Press          Volume    
        22   300           -5538.2553      0             -5507.8921      210.78155      1648912.4    
Loop time of 0.0149663 on 12 procs for 0 steps with 784 atoms

77.7% CPU use with 12 MPI tasks x 1 OpenMP threads

MPI task timing breakdown:
Section |  min time  |  avg time  |  max time  |%varavg| %total
---------------------------------------------------------------
Pair    | 0          | 0          | 0          |   0.0 |  0.00
Neigh   | 0          | 0          | 0          |   0.0 |  0.00
Comm    | 0          | 0          | 0          |   0.0 |  0.00
Output  | 0          | 0          | 0          |   0.0 |  0.00
Modify  | 0          | 0          | 0          |   0.0 |  0.00
Other   |            | 0.01497    |            |       |100.00

Nlocal:        65.3333 ave         392 max           0 min
Histogram: 10 0 0 0 0 0 0 0 0 2
Nghost:            147 ave         882 max           0 min
Histogram: 10 0 0 0 0 0 0 0 0 2
Neighs:              0 ave           0 max           0 min
Histogram: 12 0 0 0 0 0 0 0 0 0

Total # of neighbors = 0
Ave neighs/atom = 0
Neighbor list builds = 0
Dangerous builds = 0
#8 -------tension-----------------------------
unfix s
undump  1
unfix  pe
reset_timestep 0
fix avestress all ave/atom 1 ${dumpstep} ${dumpstep} c_1[1] c_1[2] c_1[3] c_1[4] c_1[5] c_1[6]
fix avestress all ave/atom 1 1000 ${dumpstep} c_1[1] c_1[2] c_1[3] c_1[4] c_1[5] c_1[6]
fix avestress all ave/atom 1 1000 1000 c_1[1] c_1[2] c_1[3] c_1[4] c_1[5] c_1[6]

#-----calculation of strain and Cumulative compression--------
variable                tmp equal "lz"
variable                L0 equal ${tmp}
variable                L0 equal 41.2228092202
variable                strain equal "(lz - v_L0)/v_L0"
variable                Cumulativels equal "(lz - v_L0)/10"
fix Step all print 100 "${strain} ${Cumulativels} ${zstress}" file grapoten.txt screen no

dump 2 all custom ${dumpstep} tension.xyz type x y z f_avestress[1] f_avestress[2] f_avestress[3] f_avestress[4] f_avestress[5] f_avestress[6]
dump 2 all custom 1000 tension.xyz type x y z f_avestress[1] f_avestress[2] f_avestress[3] f_avestress[4] f_avestress[5] f_avestress[6]

fix  1 all npt temp ${temperature} ${temperature} 0.1 y ${pressure} ${pressure} 10 x ${pressure} ${pressure} 10
fix  1 all npt temp 300 ${temperature} 0.1 y ${pressure} ${pressure} 10 x ${pressure} ${pressure} 10
fix  1 all npt temp 300 300 0.1 y ${pressure} ${pressure} 10 x ${pressure} ${pressure} 10
fix  1 all npt temp 300 300 0.1 y 0 ${pressure} 10 x ${pressure} ${pressure} 10
fix  1 all npt temp 300 300 0.1 y 0 0 10 x ${pressure} ${pressure} 10
fix  1 all npt temp 300 300 0.1 y 0 0 10 x 0 ${pressure} 10
fix  1 all npt temp 300 300 0.1 y 0 0 10 x 0 0 10

thermo_style custom step pe ke etotal lx ly lz
WARNING: New thermo_style command, previous thermo_modify settings will be lost (src/output.cpp:903)
fix   2 all deform 1 z erate ${deformrate} remap x units box
fix   2 all deform 1 z erate 0.005 remap x units box
fix   3 all ave/time 2 500 1000 v_xstress v_ystress v_zstress file pressure.out
run   ${totaltime}
run   100000
WARNING: Dump 2 includes no atom IDs and is not sorted by ID. This may complicate post-processing tasks or visualization (src/dump.cpp:221)
Per MPI rank memory allocation (min/avg/max) = 10.37 | 10.53 | 11.7 Mbytes
   Step         PotEng         KinEng         TotEng           Lx             Ly             Lz      
         0  -5538.2553      30.363208     -5507.8921      200            200            41.222809    
       100  -5526.19        21.797147     -5504.3929      200.0172       200.02114      41.243421    
       200  -5523.5804      24.286724     -5499.2936      200.02498      200.0209       41.264032    
       300  -5523.2756      29.337612     -5493.938       200.00428      199.98912      41.284643    
       400  -5522.0371      32.227141     -5489.8099      200.01475      200.00652      41.305255    
       500  -5517.2914      30.420801     -5486.8706      200.02202      200.01438      41.325866    
       600  -5511.0489      27.153225     -5483.8956      200.00614      199.98409      41.346478    
       700  -5512.3485      31.738257     -5480.6102      200.01413      199.99989      41.367089    
       800  -5509.3458      30.809237     -5478.5366      200.01368      200.00507      41.3877      
       900  -5510.3985      31.655695     -5478.7428      199.99826      199.97135      41.408312    
      1000  -5515.1001      33.454499     -5481.6456      200.01391      199.98921      41.428923    
      1100  -5515.5106      30.277976     -5485.2327      200.00892      199.99272      41.449535    
      1200  -5518.1465      30.38052      -5487.7659      199.99026      199.95732      41.470146    
      1300  -5520.0732      30.853264     -5489.22        200.00726      199.96958      41.490757    
      1400  -5514.9821      26.813146     -5488.169       200.00699      199.98301      41.511369    
      1500  -5511.834       27.054191     -5484.7798      199.98424      199.94927      41.53198     
      1600  -5514.7002      33.08826      -5481.6119      200.00372      199.95761      41.552592    
      1700  -5509.9234      29.977549     -5479.9459      200.00863      199.97191      41.573203    
      1800  -5511.1893      30.829614     -5480.3596      199.9797       199.94098      41.593815    
      1900  -5515.9247      33.199345     -5482.7254      199.99707      199.94589      41.614426    
      2000  -5514.6688      29.693268     -5484.9756      200.00339      199.95176      41.635037    
      2100  -5515.1725      29.192839     -5485.9797      199.97689      199.92982      41.655649    
      2200  -5515.204       30.373231     -5484.8307      199.99172      199.9354       41.67626     
      2300  -5510.6625      28.377627     -5482.2848      199.99663      199.93981      41.696872    
      2400  -5510.3264      30.097821     -5480.2286      199.97467      199.91752      41.717483    
      2500  -5510.3939      31.500796     -5478.8932      199.9895       199.92701      41.738094    
      2600  -5510.1854      31.251056     -5478.9343      199.99222      199.92863      41.758706    
      2700  -5510.5853      29.837561     -5480.7477      199.97123      199.90575      41.779317    
      2800  -5513.6012      31.984712     -5481.6165      199.98428      199.91233      41.799929    
      2900  -5512.3226      29.859662     -5482.4629      199.98635      199.9145       41.82054     
      3000  -5512.3494      29.880883     -5482.4685      199.96689      199.89467      41.841151    
      3100  -5510.7121      30.191211     -5480.5209      199.97692      199.90034      41.861763    
      3200  -5509.5878      31.179501     -5478.4083      199.98002      199.90046      41.882374    
      3300  -5509.1254      31.340074     -5477.7853      199.962        199.88303      41.902986    
      3400  -5509.8085      31.62978      -5478.1787      199.9723       199.88986      41.923597    
      3500  -5509.6861      29.80386      -5479.8823      199.97296      199.88726      41.944208    
      3600  -5509.5221      29.247586     -5480.2745      199.95898      199.86982      41.96482     
      3700  -5510.3592      30.770101     -5479.5891      199.96404      199.87599      41.985431    
      3800  -5507.3125      29.557799     -5477.7547      199.96365      199.87384      42.006043    
      3900  -5506.7803      30.116065     -5476.6643      199.95289      199.85709      42.026654    
      4000  -5508.8425      32.257758     -5476.5847      199.95906      199.86236      42.047265    
      4100  -5505.9327      28.97423      -5476.9585      199.95504      199.85854      42.067877    
      4200  -5506.4306      29.36081      -5477.0697      199.94373      199.84155      42.088488    
      4300  -5507.1164      30.267705     -5476.8487      199.95156      199.84669      42.1091      
      4400  -5506.4377      30.677547     -5475.7602      199.94605      199.84152      42.129711    
      4500  -5505.6062      30.833285     -5474.773       199.93435      199.82497      42.150322    
      4600  -5505.3755      30.512774     -5474.8627      199.94234      199.82864      42.170934    
      4700  -5505.7656      29.690925     -5476.0747      199.93656      199.82462      42.191545    
      4800  -5503.8233      27.855081     -5475.9682      199.92545      199.80951      42.212157    
      4900  -5504.7134      31.491772     -5473.2217      199.93097      199.80976      42.232768    
      5000  -5502.6809      30.841694     -5471.8392      199.92503      199.80583      42.253379    
      5100  -5502.8592      31.260798     -5471.5984      199.91622      199.79176      42.273991    
      5200  -5502.5739      30.527155     -5472.0468      199.91882      199.79084      42.294602    
      5300  -5503.3727      30.02128      -5473.3514      199.91006      199.78565      42.315214    
      5400  -5502.4913      28.839482     -5473.6518      199.9034       199.77004      42.335825    
      5500  -5502.5249      30.236685     -5472.2882      199.90536      199.77098      42.356436    
      5600  -5501.0248      29.931764     -5471.0931      199.89741      199.76483      42.377048    
      5700  -5499.3827      29.429513     -5469.9532      199.88821      199.74944      42.397659    
      5800  -5499.6506      31.125139     -5468.5255      199.89139      199.74818      42.418271    
      5900  -5500.2544      32.897635     -5467.3568      199.88207      199.74127      42.438882    
      6000  -5499.1196      30.137419     -5468.9821      199.87411      199.72783      42.459493    
      6100  -5498.889       29.117708     -5469.7713      199.87444      199.72366      42.480105    
      6200  -5498.0521      29.448519     -5468.6036      199.8614       199.71623      42.500716    
      6300  -5496.1833      29.700503     -5466.4828      199.85604      199.70307      42.521328    
      6400  -5495.3535      29.745412     -5465.608       199.85969      199.69714      42.541939    
      6500  -5494.6569      29.246307     -5465.4106      199.84366      199.68773      42.562551    
      6600  -5496.529       31.484666     -5465.0443      199.83345      199.67693      42.583162    
      6700  -5494.9341      30.352874     -5464.5812      199.83947      199.66889      42.603773    
      6800  -5493.6569      29.571412     -5464.0855      199.82507      199.65671      42.624385    
      6900  -5493.7466      30.171219     -5463.5753      199.81287      199.64919      42.644996    
      7000  -5492.8063      29.632481     -5463.1738      199.8155       199.63867      42.665608    
      7100  -5493.5058      30.035575     -5463.4702      199.80377      199.62242      42.686219    
      7200  -5493.8541      29.779711     -5464.0744      199.79098      199.618        42.70683     
      7300  -5492.8389      29.505829     -5463.3331      199.78999      199.60881      42.727442    
      7400  -5491.5008      30.819499     -5460.6813      199.77863      199.58714      42.748053    
      7500  -5489.9252      30.743169     -5459.182       199.76717      199.5839       42.768665    
      7600  -5488.7092      30.224072     -5458.4851      199.76266      199.57438      42.789276    
      7700  -5488.9126      30.141976     -5458.7706      199.75185      199.55245      42.809887    
      7800  -5489.5903      29.261181     -5460.3291      199.74097      199.54668      42.830499    
      7900  -5489.1891      28.61153      -5460.5776      199.73283      199.5358       42.85111     
      8000  -5488.2852      29.755511     -5458.5297      199.7207       199.51606      42.871722    
      8100  -5486.7898      29.846716     -5456.943       199.71183      199.50828      42.892333    
      8200  -5485.1803      29.412317     -5455.768       199.70207      199.49563      42.912944    
      8300  -5485.8802      31.40774      -5454.4724      199.68809      199.47481      42.933556    
      8400  -5484.3423      30.476066     -5453.8662      199.67861      199.46679      42.954167    
      8500  -5485.3025      30.239148     -5455.0633      199.66674      199.45297      42.974779    
      8600  -5484.9269      29.471827     -5455.4551      199.6522       199.43114      42.99539     
      8700  -5483.4612      29.619666     -5453.8415      199.64387      199.42039      43.016001    
      8800  -5482.763       30.610536     -5452.1525      199.62665      199.40721      43.036613    
      8900  -5481.0342      29.872426     -5451.1618      199.61235      199.38599      43.057224    
      9000  -5480.4658      29.771024     -5450.6948      199.60701      199.37269      43.077836    
      9100  -5480.5445      29.621499     -5450.923       199.58594      199.35509      43.098447    
      9200  -5479.8876      28.025349     -5451.8623      199.56911      199.3374       43.119058    
      9300  -5478.9542      28.530605     -5450.4236      199.56579      199.31957      43.13967     
      9400  -5477.8392      30.137733     -5447.7015      199.54587      199.29972      43.160281    
      9500  -5477.7818      30.888399     -5446.8934      199.52363      199.28713      43.180893    
      9600  -5477.1328      29.924579     -5447.2082      199.517        199.26411      43.201504    
      9700  -5476.2237      28.671906     -5447.5518      199.49876      199.23989      43.222115    
      9800  -5476.8088      30.489257     -5446.3195      199.47848      199.23003      43.242727    
      9900  -5473.9685      30.76433      -5443.2042      199.46676      199.20687      43.263338    
     10000  -5473.8309      31.035788     -5442.7951      199.44916      199.17496      43.28395     
     10100  -5474.1061      30.380964     -5443.7252      199.42623      199.16516      43.304561    
     10200  -5472.5143      28.993605     -5443.5207      199.41057      199.14454      43.325172    
     10300  -5472.7672      30.783791     -5441.9834      199.39492      199.11014      43.345784    
     10400  -5472.8368      32.145389     -5440.6914      199.37223      199.09506      43.366395    
     10500  -5470.6953      30.327014     -5440.3683      199.34875      199.07477      43.387007    
     10600  -5471.847       31.485516     -5440.3614      199.33225      199.04203      43.407618    
     10700  -5469.2091      29.427703     -5439.7814      199.31424      199.02246      43.42823     
     10800  -5467.2464      30.520785     -5436.7256      199.28538      199.00012      43.448841    
     10900  -5466.2634      30.980756     -5435.2827      199.26524      198.96672      43.469452    
     11000  -5467.6979      31.747769     -5435.9502      199.24852      198.94166      43.490064    
     11100  -5466.5307      30.017889     -5436.5128      199.21673      198.91708      43.510675    
     11200  -5465.5595      29.609134     -5435.9504      199.1932       198.88728      43.531287    
     11300  -5463.9396      29.614847     -5434.3247      199.17487      198.85766      43.551898    
     11400  -5463.1763      31.812107     -5431.3642      199.1418       198.82673      43.572509    
     11500  -5462.813       32.155251     -5430.6578      199.11843      198.79765      43.593121    
     11600  -5462.8174      31.670286     -5431.1471      199.09464      198.76768      43.613732    
     11700  -5462.2291      30.763047     -5431.4661      199.06097      198.73369      43.634344    
     11800  -5461.5995      30.758798     -5430.8407      199.037        198.69879      43.654955    
     11900  -5460.3893      31.761261     -5428.628       199.00734      198.66571      43.675566    
     12000  -5458.2056      31.852949     -5426.3527      198.97425      198.63301      43.696178    
     12100  -5458.5208      31.693744     -5426.8271      198.94876      198.5944       43.716789    
     12200  -5457.7542      30.586724     -5427.1675      198.91586      198.556        43.737401    
     12300  -5456.0685      29.563538     -5426.505       198.8799       198.52271      43.758012    
     12400  -5455.3646      30.457027     -5424.9076      198.85232      198.48222      43.778623    
     12500  -5454.2659      31.239715     -5423.0261      198.81899      198.43953      43.799235    
     12600  -5454.3414      30.959563     -5423.3818      198.77961      198.40459      43.819846    
     12700  -5453.767       29.22412      -5424.5429      198.74653      198.36014      43.840458    
     12800  -5453.9612      30.700273     -5423.2609      198.71095      198.31335      43.861069    
     12900  -5451.7376      30.883195     -5420.8544      198.67079      198.27613      43.88168     
     13000  -5450.5235      31.046258     -5419.4772      198.63474      198.23035      43.902292    
     13100  -5450.6743      31.411365     -5419.263       198.59672      198.17877      43.922903    
     13200  -5450.2471      30.815488     -5419.4316      198.55509      198.13555      43.943515    
     13300  -5448.6499      30.094302     -5418.5556      198.51331      198.08967      43.964126    
     13400  -5448.0095      30.936292     -5417.0732      198.47393      198.03695      43.984737    
     13500  -5446.9514      31.14743      -5415.804       198.43213      197.98799      44.005349    
     13600  -5446.653       30.919522     -5415.7335      198.38532      197.93697      44.02596     
     13700  -5446.571       29.133161     -5417.4379      198.33954      197.88318      44.046572    
     13800  -5444.3608      28.209945     -5416.1509      198.29796      197.83124      44.067183    
     13900  -5443.6505      29.918063     -5413.7324      198.25044      197.77373      44.087794    
     14000  -5442.9729      30.999381     -5411.9735      198.19903      197.72072      44.108406    
     14100  -5442.7851      31.606566     -5411.1785      198.15085      197.66572      44.129017    
     14200  -5441.9007      30.275303     -5411.6254      198.10402      197.60031      44.149629    
     14300  -5441.4603      28.739353     -5412.721       198.05258      197.54491      44.17024     
     14400  -5441.017       30.131894     -5410.8851      197.99521      197.48955      44.190851    
     14500  -5438.6692      29.936607     -5408.7326      197.94776      197.41857      44.211463    
     14600  -5438.1929      30.978891     -5407.214       197.89846      197.35588      44.232074    
     14700  -5434.8608      29.485149     -5405.3757      197.83107      197.3004       44.252686    
     14800  -5436.4204      32.571766     -5403.8487      197.78062      197.23012      44.273297    
     14900  -5433.8419      29.918971     -5403.9229      197.73089      197.15852      44.293909    
     15000  -5434.4066      29.281107     -5405.1255      197.66307      197.09453      44.31452     
     15100  -5432.7647      28.434857     -5404.3299      197.60393      197.02643      44.335131    
     15200  -5432.3416      30.251707     -5402.0899      197.54863      196.95331      44.355743    
     15300  -5431.5892      31.471139     -5400.118       197.48489      196.88242      44.376354    
     15400  -5430.8713      31.83536      -5399.036       197.41938      196.81371      44.396966    
     15500  -5428.9683      30.209238     -5398.7591      197.35695      196.73648      44.417577    
     15600  -5428.7678      29.49216      -5399.2756      197.29429      196.6595       44.438188    
     15700  -5428.5785      29.51281      -5399.0657      197.22763      196.58632      44.4588      
     15800  -5426.1088      30.006707     -5396.1021      197.159        196.51013      44.479411    
     15900  -5424.4851      30.861188     -5393.6239      197.09298      196.42938      44.500023    
     16000  -5422.6689      29.814429     -5392.8544      197.02574      196.34777      44.520634    
     16100  -5423.6278      30.220683     -5393.4071      196.95091      196.27101      44.541245    
     16200  -5423.2188      29.690709     -5393.5281      196.8813       196.18988      44.561857    
     16300  -5421.8877      30.254961     -5391.6327      196.81294      196.10253      44.582468    
     16400  -5419.5265      31.033481     -5388.493       196.7364       196.02227      44.60308     
     16500  -5417.914       30.074954     -5387.8391      196.66203      195.93781      44.623691    
     16600  -5417.6426      29.613604     -5388.029       196.59228      195.8467       44.644302    
     16700  -5417.0592      29.254518     -5387.8047      196.51425      195.76289      44.664914    
     16800  -5416.8708      30.052569     -5386.8182      196.43509      195.67776      44.685525    
     16900  -5415.0987      30.829643     -5384.269       196.36103      195.58264      44.706137    
     17000  -5413.4655      31.376531     -5382.089       196.28365      195.49293      44.726748    
     17100  -5412.6333      30.161496     -5382.4718      196.19913      195.40603      44.747359    
     17200  -5412.2104      29.191731     -5383.0186      196.12191      195.31175      44.767971    
     17300  -5411.1693      29.331025     -5381.8383      196.04478      195.21789      44.788582    
     17400  -5409.3003      29.47775      -5379.8225      195.95774      195.1259       44.809194    
     17500  -5408.9119      30.849687     -5378.0622      195.8754       195.03283      44.829805    
     17600  -5407.782       30.469108     -5377.3129      195.79487      194.93592      44.850416    
     17700  -5408.6584      30.469118     -5378.1893      195.71156      194.83523      44.871028    
     17800  -5407.4998      29.40445      -5378.0954      195.62496      194.74478      44.891639    
     17900  -5406.4232      29.808662     -5376.6146      195.5387       194.64653      44.912251    
     18000  -5403.9567      30.624768     -5373.3319      195.45556      194.5415       44.932862    
     18100  -5403.0517      31.261917     -5371.7898      195.3687       194.44724      44.953473    
     18200  -5401.5279      30.155451     -5371.3725      195.27663      194.34983      44.974085    
     18300  -5401.4991      29.782621     -5371.7164      195.19243      194.2442       44.994696    
     18400  -5402.4799      30.588112     -5371.8918      195.1057       194.14382      45.015308    
     18500  -5401.5793      29.536051     -5372.0433      195.01191      194.04402      45.035919    
     18600  -5401.3205      29.87552      -5371.445       194.92474      193.93985      45.05653     
     18700  -5397.4472      29.381836     -5368.0653      194.83695      193.83597      45.077142    
     18800  -5396.1664      30.532219     -5365.6342      194.74293      193.73467      45.097753    
     18900  -5395.8781      31.733918     -5364.1442      194.65391      193.63133      45.118365    
     19000  -5394.4892      30.843807     -5363.6454      194.56078      193.52689      45.138976    
     19100  -5393.006       29.048287     -5363.9577      194.46929      193.42028      45.159588    
     19200  -5393.0594      29.176669     -5363.8827      194.3785       193.31498      45.180199    
     19300  -5393.1866      30.56045      -5362.6262      194.28124      193.21256      45.20081     
     19400  -5389.3127      30.016821     -5359.2959      194.19046      193.10459      45.221422    
     19500  -5388.6795      31.260692     -5357.4188      194.10116      192.99532      45.242033    
     19600  -5386.6446      29.717156     -5356.9275      194.00414      192.89258      45.262645    
     19700  -5386.9395      29.503146     -5357.4363      193.90624      192.78756      45.283256    
     19800  -5386.5676      28.857533     -5357.7101      193.81637      192.67562      45.303867    
     19900  -5385.6509      28.90394      -5356.747       193.72254      192.5686       45.324479    
     20000  -5384.7619      31.460751     -5353.3012      193.62286      192.46461      45.34509     
     20100  -5381.5994      30.826616     -5350.7728      193.53226      192.35374      45.365702    
     20200  -5381.4662      31.744071     -5349.7221      193.4364       192.24604      45.386313    
     20300  -5380.4831      30.11278      -5350.3703      193.34033      192.13743      45.406924    
     20400  -5380.1059      29.777945     -5350.328       193.24624      192.03163      45.427536    
     20500  -5378.9413      30.243672     -5348.6976      193.14932      191.92247      45.448147    
     20600  -5376.5599      29.921371     -5346.6385      193.0565       191.81132      45.468759    
     20700  -5375.2602      30.170561     -5345.0896      192.96166      191.70592      45.48937     
     20800  -5374.3578      30.319167     -5344.0387      192.86012      191.59753      45.509981    
     20900  -5374.3842      30.708277     -5343.6759      192.7681       191.48982      45.530593    
     21000  -5373.9201      29.899878     -5344.0202      192.67611      191.37852      45.551204    
     21100  -5372.5621      29.23842      -5343.3237      192.57514      191.27248      45.571816    
     21200  -5370.7889      31.216852     -5339.5721      192.48141      191.16627      45.592427    
     21300  -5369.352       31.506385     -5337.8456      192.38932      191.05465      45.613038    
     21400  -5367.3566      29.923819     -5337.4328      192.28989      190.94918      45.63365     
     21500  -5366.6575      29.175052     -5337.4825      192.19725      190.84275      45.654261    
     21600  -5368.1071      30.514465     -5337.5926      192.10151      190.73324      45.674873    
     21700  -5366.5364      29.353289     -5337.1831      192.00728      190.62533      45.695484    
     21800  -5365.7551      31.439056     -5334.3161      191.9132       190.51982      45.716095    
     21900  -5361.8992      30.38485      -5331.5143      191.81785      190.41291      45.736707    
     22000  -5359.7875      29.691589     -5330.0959      191.72401      190.30736      45.757318    
     22100  -5360.4049      30.888656     -5329.5162      191.63091      190.20073      45.77793     
     22200  -5360.8151      30.941096     -5329.874       191.53784      190.09419      45.798541    
     22300  -5357.9934      27.956953     -5330.0365      191.44207      189.99121      45.819152    
     22400  -5357.6313      29.777705     -5327.8536      191.35111      189.88472      45.839764    
     22500  -5354.3768      29.967073     -5324.4098      191.25981      189.77956      45.860375    
     22600  -5353.8673      30.496692     -5323.3706      191.16391      189.67646      45.880987    
     22700  -5352.6487      29.289046     -5323.3597      191.07415      189.57293      45.901598    
     22800  -5354.1583      30.93003      -5323.2283      190.98181      189.46837      45.922209    
     22900  -5352.4938      30.164179     -5322.3296      190.88987      189.36591      45.942821    
     23000  -5349.9083      30.57224      -5319.336       190.79901      189.26591      45.963432    
     23100  -5348.4867      31.65025      -5316.8365      190.7095       189.16019      45.984044    
     23200  -5347.2663      31.089766     -5316.1765      190.62011      189.0597       46.004655    
     23300  -5346.3262      29.477979     -5316.8482      190.52971      188.96062      46.025266    
     23400  -5346.0845      29.83516      -5316.2493      190.43783      188.85823      46.045878    
     23500  -5344.221       29.601127     -5314.6199      190.34988      188.76047      46.066489    
     23600  -5343.0059      30.308314     -5312.6976      190.26484      188.65894      46.087101    
     23700  -5341.3787      30.372388     -5311.0063      190.17327      188.55963      46.107712    
     23800  -5340.7967      31.09065      -5309.706       190.08549      188.46557      46.128324    
     23900  -5338.9444      29.676577     -5309.2678      189.99926      188.36542      46.148935    
     24000  -5340.0736      30.879132     -5309.1944      189.91251      188.26623      46.169546    
     24100  -5336.766       28.782073     -5307.9839      189.82799      188.17197      46.190158    
     24200  -5335.4542      30.34181      -5305.1124      189.7403       188.07678      46.210769    
     24300  -5334.0778      31.173506     -5302.9043      189.65625      187.97946      46.231381    
     24400  -5333.1765      30.922197     -5302.2543      189.57448      187.88405      46.251992    
     24500  -5332.2079      29.871674     -5302.3362      189.48823      187.78968      46.272603    
     24600  -5331.8274      29.844712     -5301.9827      189.40429      187.69716      46.293215    
     24700  -5331.5608      28.681851     -5302.879       189.32179      187.60522      46.313826    
     24800  -5330.574       28.922703     -5301.6513      189.24008      187.51004      46.334438    
     24900  -5328.331       30.10739      -5298.2236      189.15642      187.42075      46.355049    
     25000  -5326.4211      30.758975     -5295.6621      189.0763       187.33079      46.37566     
     25100  -5324.1957      30.53421      -5293.6615      188.99684      187.23694      46.396272    
     25200  -5323.9661      30.989962     -5292.9762      188.91702      187.14678      46.416883    
     25300  -5323.7948      30.303593     -5293.4912      188.83661      187.06055      46.437495    
     25400  -5322.9154      29.413016     -5293.5024      188.75476      186.97081      46.458106    
     25500  -5321.376       29.988612     -5291.3874      188.67749      186.88235      46.478717    
     25600  -5319.6083      30.563026     -5289.0452      188.60197      186.79637      46.499329    
     25700  -5317.2018      29.904709     -5287.2971      188.52162      186.70655      46.51994     
     25800  -5314.7615      28.975827     -5285.7857      188.44493      186.62464      46.540552    
     25900  -5315.6959      31.169972     -5284.5259      188.3706       186.539        46.561163    
     26000  -5313.3775      29.882917     -5283.4946      188.29395      186.44947      46.581774    
     26100  -5313.4344      30.810984     -5282.6234      188.21695      186.37046      46.602386    
     26200  -5310.6731      28.950811     -5281.7223      188.14267      186.28689      46.622997    
     26300  -5310.6145      30.483827     -5280.1306      188.06934      186.19979      46.643609    
     26400  -5306.9526      29.449715     -5277.5029      187.99668      186.11937      46.66422     
     26500  -5306.8355      31.127808     -5275.7077      187.92146      186.0396       46.684831    
     26600  -5306.8324      30.315147     -5276.5173      187.84961      185.95605      46.705443    
     26700  -5306.4178      30.04451      -5276.3733      187.77844      185.87581      46.726054    
     26800  -5305.4382      30.940075     -5274.4981      187.70623      185.79779      46.746666    
     26900  -5303.9151      31.707272     -5272.2078      187.6347       185.71634      46.767277    
     27000  -5300.0359      29.869214     -5270.1667      187.56372      185.63954      46.787888    
     27100  -5298.545       31.803809     -5266.7412      187.49649      185.56058      46.8085      
     27200  -5298.5395      33.40054      -5265.139       187.42593      185.47946      46.829111    
     27300  -5297.0938      30.888603     -5266.2052      187.35434      185.4082       46.849723    
     27400  -5296.0019      29.977405     -5266.0245      187.28609      185.33073      46.870334    
     27500  -5294.9633      29.411188     -5265.5521      187.21928      185.25003      46.890945    
     27600  -5294.5623      29.97198      -5264.5904      187.15277      185.1794       46.911557    
     27700  -5292.0568      29.870919     -5262.1859      187.08241      185.1039       46.932168    
     27800  -5290.6861      31.626048     -5259.06        187.01741      185.02909      46.95278     
     27900  -5289.7145      31.389047     -5258.3255      186.9518       184.95816      46.973391    
     28000  -5288.0328      29.497098     -5258.5357      186.88439      184.88159      46.994003    
     28100  -5287.3346      29.756574     -5257.578       186.82087      184.8112       47.014614    
     28200  -5286.4729      30.424546     -5256.0483      186.75282      184.74089      47.035225    
     28300  -5285.7026      31.06358      -5254.6391      186.6914       184.66558      47.055837    
     28400  -5283.5765      30.280923     -5253.2955      186.62918      184.5969       47.076448    
     28500  -5282.0715      30.120071     -5251.9514      186.55986      184.52893      47.09706     
     28600  -5280.9066      30.147048     -5250.7596      186.49856      184.45928      47.117671    
     28700  -5279.4354      29.635639     -5249.7997      186.43686      184.38834      47.138282    
     28800  -5279.7327      31.253167     -5248.4795      186.375        184.31911      47.158894    
     28900  -5276.5777      30.076641     -5246.5011      186.31337      184.25108      47.179505    
     29000  -5276.558       31.816535     -5244.7414      186.25102      184.18452      47.200117    
     29100  -5273.6292      29.274629     -5244.3546      186.19136      184.11687      47.220728    
     29200  -5273.1586      28.976442     -5244.1822      186.13104      184.0463       47.241339    
     29300  -5272.6507      29.854883     -5242.7958      186.07057      183.9851       47.261951    
     29400  -5270.62        31.312259     -5239.3077      186.00808      183.91936      47.282562    
     29500  -5269.1087      31.59836      -5237.5104      185.95183      183.84889      47.303174    
     29600  -5267.5362      30.356852     -5237.1794      185.8952       183.78819      47.323785    
     29700  -5267.8649      30.660434     -5237.2044      185.83177      183.72283      47.344396    
     29800  -5266.7393      30.21689      -5236.5224      185.77509      183.65919      47.365008    
     29900  -5264.9341      28.570907     -5236.3631      185.71988      183.59442      47.385619    
     30000  -5265.7267      30.758239     -5234.9684      185.66152      183.52859      47.406231    
     30100  -5260.3682      28.697255     -5231.671       185.60725      183.46755      47.426842    
     30200  -5259.5746      30.735545     -5228.8391      185.54776      183.40688      47.447453    
     30300  -5258.8482      31.621295     -5227.2269      185.49243      183.34204      47.468065    
     30400  -5258.4732      31.171674     -5227.3015      185.43893      183.27938      47.488676    
     30500  -5256.8945      29.211958     -5227.6825      185.37897      183.22239      47.509288    
     30600  -5256.0149      30.010422     -5226.0045      185.32421      183.16037      47.529899    
     30700  -5254.1493      30.591406     -5223.5579      185.26996      183.09878      47.55051     
     30800  -5252.773       31.165942     -5221.6071      185.2172       183.03883      47.571122    
     30900  -5250.8622      30.392494     -5220.4697      185.1615       182.97837      47.591733    
     31000  -5250.1241      30.702607     -5219.4215      185.10582      182.92207      47.612345    
     31100  -5247.4598      29.212847     -5218.2469      185.05361      182.86176      47.632956    
     31200  -5246.8321      29.127065     -5217.7051      185.00018      182.79962      47.653567    
     31300  -5246.2368      29.532938     -5216.7038      184.94833      182.74561      47.674179    
     31400  -5245.5576      31.274615     -5214.283       184.89256      182.68706      47.69479     
     31500  -5242.7364      31.037768     -5211.6987      184.84133      182.62634      47.715402    
     31600  -5240.3455      29.714565     -5210.6309      184.79259      182.57117      47.736013    
     31700  -5240.6465      29.372123     -5211.2744      184.73848      182.51091      47.756624    
     31800  -5239.301       28.631115     -5210.6698      184.68434      182.45819      47.777236    
     31900  -5238.9118      30.519314     -5208.3925      184.63221      182.40363      47.797847    
     32000  -5236.4528      29.911034     -5206.5417      184.58373      182.34117      47.818459    
     32100  -5235.2184      30.321366     -5204.897       184.53345      182.28759      47.83907     
     32200  -5233.4792      30.92201      -5202.5571      184.48016      182.23308      47.859682    
     32300  -5231.1905      30.860421     -5200.3301      184.42944      182.17772      47.880293    
     32400  -5230.6166      30.823813     -5199.7928      184.38137      182.12158      47.900904    
     32500  -5229.8358      29.219702     -5200.6161      184.33118      182.066        47.921516    
     32600  -5229.2955      29.967456     -5199.3281      184.27958      182.01215      47.942127    
     32700  -5226.9877      30.485937     -5196.5018      184.22726      181.95944      47.962739    
     32800  -5225.1844      31.159375     -5194.025       184.18007      181.90645      47.98335     
     32900  -5224.5374      31.429272     -5193.1081      184.13371      181.84655      48.003961    
     33000  -5222.7717      30.386003     -5192.3857      184.08341      181.79601      48.024573    
     33100  -5220.7982      29.526488     -5191.2717      184.03325      181.74495      48.045184    
     33200  -5219.7706      30.104034     -5189.6666      183.98478      181.68705      48.065796    
     33300  -5218.3809      31.016425     -5187.3645      183.93961      181.63577      48.086407    
     33400  -5216.2562      31.978735     -5184.2775      183.88895      181.5822       48.107018    
     33500  -5215.0246      30.954696     -5184.0699      183.83952      181.53086      48.12763     
     33600  -5214.8426      30.343806     -5184.4988      183.79231      181.48035      48.148241    
     33700  -5212.8078      29.402156     -5183.4057      183.74457      181.42535      48.168853    
     33800  -5212.1141      30.319174     -5181.7949      183.6994       181.37165      48.189464    
     33900  -5210.7655      31.656769     -5179.1087      183.64864      181.32263      48.210075    
     34000  -5208.4587      32.283004     -5176.1757      183.60131      181.27171      48.230687    
     34100  -5206.879       30.632978     -5176.246       183.55627      181.21774      48.251298    
     34200  -5205.5439      28.946048     -5176.5979      183.50834      181.16699      48.27191     
     34300  -5205.6406      30.481441     -5175.1592      183.46183      181.11547      48.292521    
     34400  -5205.01        31.597292     -5173.4128      183.41351      181.06532      48.313132    
     34500  -5201.4663      30.004262     -5171.462       183.37082      181.01411      48.333744    
     34600  -5200.4672      31.622731     -5168.8444      183.32437      180.95865      48.354355    
     34700  -5198.0897      31.510209     -5166.5795      183.27669      180.91094      48.374967    
     34800  -5198.2643      31.250119     -5167.0141      183.22978      180.86308      48.395578    
     34900  -5196.7698      29.505383     -5167.2644      183.1823       180.80862      48.416189    
     35000  -5195.2579      29.42193      -5165.8359      183.14093      180.76014      48.436801    
     35100  -5194.3398      31.356996     -5162.9828      183.09277      180.70921      48.457412    
     35200  -5191.7314      31.165976     -5160.5654      183.04516      180.65849      48.478024    
     35300  -5190.5727      30.386943     -5160.1857      183.00097      180.61387      48.498635    
     35400  -5190.4987      29.264579     -5161.2341      182.95471      180.55848      48.519246    
     35500  -5189.4998      30.110378     -5159.3894      182.9105       180.50815      48.539858    
     35600  -5186.7143      30.110477     -5156.6039      182.8628       180.46298      48.560469    
     35700  -5185.6807      31.634357     -5154.0464      182.8163       180.41163      48.581081    
     35800  -5182.2886      29.761837     -5152.5267      182.77396      180.36115      48.601692    
     35900  -5183.0708      30.056417     -5153.0144      182.73069      180.30953      48.622303    
     36000  -5181.8761      28.960127     -5152.9159      182.68261      180.2612       48.642915    
     36100  -5180.6839      30.134643     -5150.5492      182.63683      180.21374      48.663526    
     36200  -5179.0769      31.37303      -5147.7039      182.59366      180.16444      48.684138    
     36300  -5176.2513      30.222089     -5146.0293      182.54916      180.1093       48.704749    
     36400  -5175.3792      30.535309     -5144.8439      182.50511      180.06123      48.72536     
     36500  -5175.1978      31.136109     -5144.0617      182.45778      180.01768      48.745972    
     36600  -5173.8968      28.877515     -5145.0192      182.41068      179.96469      48.766583    
     36700  -5172.5514      28.980124     -5143.5712      182.36949      179.91695      48.787195    
     36800  -5170.101       29.895089     -5140.2059      182.32536      179.86637      48.807806    
     36900  -5168.8296      30.924557     -5137.9051      182.27671      179.81721      48.828418    
     37000  -5167.9317      31.637491     -5136.2942      182.23432      179.77193      48.849029    
     37100  -5164.934       29.301437     -5135.6326      182.18934      179.71825      48.86964     
     37200  -5164.7797      29.283099     -5135.4966      182.14695      179.66858      48.890252    
     37300  -5164.3195      30.032512     -5134.287       182.10044      179.62212      48.910863    
     37400  -5162.1311      31.041467     -5131.0896      182.05217      179.57419      48.931475    
     37500  -5160.0141      31.7501       -5128.264       182.01016      179.52487      48.952086    
     37600  -5157.1788      30.477546     -5126.7013      181.96662      179.47459      48.972697    
     37700  -5157.2569      30.639765     -5126.6171      181.92205      179.42348      48.993309    
     37800  -5157.1252      30.00055      -5127.1247      181.87501      179.37692      49.01392     
     37900  -5155.1315      29.807712     -5125.3238      181.8311       179.32998      49.034532    
     38000  -5153.1787      30.738069     -5122.4407      181.78735      179.2761       49.055143    
     38100  -5150.4944      30.486366     -5120.008       181.74389      179.22827      49.075754    
     38200  -5150.1138      31.53795      -5118.5759      181.6996       179.18177      49.096366    
     38300  -5148.1069      30.051587     -5118.0553      181.64978      179.13058      49.116977    
     38400  -5147.4062      28.684705     -5118.7215      181.60768      179.08554      49.137589    
     38500  -5147.0682      28.408513     -5118.6597      181.56159      179.03323      49.1582      
     38600  -5144.7584      28.853925     -5115.9045      181.5152       178.98371      49.178811    
     38700  -5141.9903      29.156392     -5112.8339      181.47228      178.93925      49.199423    
     38800  -5142.332       32.13486      -5110.1971      181.42441      178.88515      49.220034    
     38900  -5138.0576      29.777519     -5108.2801      181.38297      178.83676      49.240646    
     39000  -5137.2452      30.181439     -5107.0637      181.33779      178.78724      49.261257    
     39100  -5137.1084      29.589799     -5107.5186      181.29007      178.73564      49.281868    
     39200  -5137.1506      30.168519     -5106.9821      181.24574      178.68957      49.30248     
     39300  -5133.7564      29.359593     -5104.3968      181.19963      178.64021      49.323091    
     39400  -5130.8932      29.628928     -5101.2642      181.15363      178.58813      49.343703    
     39500  -5130.2111      30.382938     -5099.8281      181.10811      178.54122      49.364314    
     39600  -5129.251       29.997459     -5099.2535      181.06146      178.49225      49.384925    
     39700  -5128.4648      29.524857     -5098.9399      181.0166       178.43844      49.405537    
     39800  -5127.4342      29.724307     -5097.7099      180.9711       178.39083      49.426148    
     39900  -5124.8915      30.925264     -5093.9663      180.92436      178.34181      49.44676     
     40000  -5123.6869      32.144768     -5091.5421      180.87796      178.28935      49.467371    
     40100  -5120.6364      29.612621     -5091.0238      180.83383      178.24252      49.487982    
     40200  -5121.419       30.351923     -5091.0671      180.78568      178.18945      49.508594    
     40300  -5120.018       30.035103     -5089.9829      180.73978      178.1395       49.529205    
     40400  -5117.334       29.347054     -5087.9869      180.69258      178.09342      49.549817    
     40500  -5116.9838      31.086134     -5085.8977      180.64444      178.03842      49.570428    
     40600  -5114.7213      30.511089     -5084.2102      180.60089      177.9884       49.591039    
     40700  -5114.2399      31.489476     -5082.7504      180.55197      177.93824      49.611651    
     40800  -5112.0734      30.065692     -5082.0077      180.50706      177.88488      49.632262    
     40900  -5110.5718      29.159441     -5081.4123      180.45879      177.83569      49.652874    
     41000  -5109.1016      29.01061      -5080.091       180.41179      177.78468      49.673485    
     41100  -5106.9394      30.252982     -5076.6864      180.36656      177.73062      49.694097    
     41200  -5105.6715      31.646261     -5074.0252      180.31587      177.68405      49.714708    
     41300  -5103.2855      30.300621     -5072.9849      180.26748      177.63248      49.735319    
     41400  -5102.6752      29.444255     -5073.2309      180.22085      177.57717      49.755931    
     41500  -5102.3141      30.240941     -5072.0731      180.17436      177.52753      49.776542    
     41600  -5100.6606      30.482483     -5070.1781      180.1263       177.4745       49.797154    
     41700  -5099.2002      31.061166     -5068.1391      180.07525      177.42178      49.817765    
     41800  -5095.2279      29.251898     -5065.976       180.02852      177.37368      49.838376    
     41900  -5093.6081      30.764662     -5062.8434      179.98074      177.31584      49.858988    
     42000  -5092.2094      31.412664     -5060.7968      179.93426      177.26335      49.879599    
     42100  -5091.4633      29.656774     -5061.8065      179.881        177.21451      49.900211    
     42200  -5089.8842      28.855757     -5061.0284      179.83288      177.1589       49.920822    
     42300  -5089.4317      30.317513     -5059.1142      179.78511      177.10697      49.941433    
     42400  -5088.3863      31.826229     -5056.5601      179.73299      177.05236      49.962045    
     42500  -5086.4388      31.73911      -5054.6997      179.68647      176.99825      49.982656    
     42600  -5083.6247      29.076304     -5054.5484      179.63285      176.94753      50.003268    
     42700  -5084.4293      29.980521     -5054.4487      179.58177      176.89531      50.023879    
     42800  -5083.0448      30.306128     -5052.7386      179.5343       176.83713      50.04449     
     42900  -5079.2048      29.805584     -5049.3992      179.48284      176.78443      50.065102    
     43000  -5076.7988      30.198564     -5046.6003      179.43179      176.73209      50.085713    
     43100  -5077.3581      31.675075     -5045.683       179.38087      176.67374      50.106325    
     43200  -5076.0784      30.92067      -5045.1577      179.32832      176.62374      50.126936    
     43300  -5073.7112      29.262375     -5044.4488      179.27743      176.56521      50.147547    
     43400  -5072.447       29.254726     -5043.1923      179.22794      176.50937      50.168159    
     43500  -5070.8627      29.710507     -5041.1522      179.17097      176.45852      50.18877     
     43600  -5069.9863      31.96313      -5038.0232      179.11961      176.399        50.209382    
     43700  -5068.0356      31.880334     -5036.1552      179.07066      176.34289      50.229993    
     43800  -5066.5572      30.324359     -5036.2328      179.01638      176.28672      50.250604    
     43900  -5065.7552      29.767237     -5035.988       178.96424      176.22912      50.271216    
     44000  -5064.34        30.03883      -5034.3012      178.90877      176.17409      50.291827    
     44100  -5063.2903      31.516047     -5031.7742      178.85409      176.11962      50.312439    
     44200  -5059.0417      29.746102     -5029.2956      178.80304      176.05926      50.33305     
     44300  -5058.0393      31.885447     -5026.1539      178.74975      175.99952      50.353661    
     44400  -5056.6017      32.587949     -5024.0137      178.69297      175.9445       50.374273    
     44500  -5054.6437      29.815156     -5024.8285      178.63818      175.8844       50.394884    
     44600  -5055.4613      30.808809     -5024.6525      178.58419      175.82767      50.415496    
     44700  -5054.2072      30.446206     -5023.761       178.52755      175.76765      50.436107    
     44800  -5052.1996      30.355338     -5021.8442      178.47435      175.70809      50.456718    
     44900  -5049.0873      30.721151     -5018.3662      178.41498      175.65162      50.47733     
     45000  -5048.0077      31.857657     -5016.1501      178.35779      175.59182      50.497941    
     45100  -5046.8369      30.821746     -5016.0151      178.30615      175.52937      50.518553    
     45200  -5046.7491      30.687269     -5016.0618      178.24695      175.46781      50.539164    
     45300  -5043.3408      29.043235     -5014.2976      178.19019      175.40842      50.559776    
     45400  -5041.327       29.266809     -5012.0602      178.13405      175.34524      50.580387    
     45500  -5040.8805      31.770328     -5009.1102      178.07465      175.28633      50.600998    
     45600  -5038.0173      31.078944     -5006.9384      178.0193       175.2207       50.62161     
     45700  -5038.7752      30.983889     -5007.7913      177.96229      175.15732      50.642221    
     45800  -5036.9168      29.975924     -5006.9408      177.8981       175.09966      50.662833    
     45900  -5035.207       30.370644     -5004.8364      177.84016      175.03424      50.683444    
     46000  -5032.132       30.227346     -5001.9047      177.7835       174.96949      50.704055    
     46100  -5030.9589      31.64493      -4999.3139      177.71978      174.90659      50.724667    
     46200  -5029.2917      31.137684     -4998.154       177.66492      174.84047      50.745278    
     46300  -5028.1981      29.216438     -4998.9817      177.60135      174.77673      50.76589     
     46400  -5027.7652      29.858447     -4997.9067      177.53654      174.71492      50.786501    
     46500  -5025.5082      30.340818     -4995.1674      177.48207      174.64384      50.807112    
     46600  -5023.7845      31.634881     -4992.1496      177.41589      174.57992      50.827724    
     46700  -5022.2172      31.327391     -4990.8898      177.35225      174.51822      50.848335    
     46800  -5021.475       29.594964     -4991.8801      177.29081      174.4453       50.868947    
     46900  -5019.4538      29.344331     -4990.1095      177.22613      174.38272      50.889558    
     47000  -5017.4421      30.057325     -4987.3848      177.16365      174.31388      50.910169    
     47100  -5015.9338      31.239895     -4984.6939      177.10282      174.24187      50.930781    
     47200  -5013.9054      30.749235     -4983.1562      177.03503      174.17757      50.951392    
     47300  -5014.1192      30.258145     -4983.8611      176.96917      174.10642      50.972004    
     47400  -5012.3475      29.414053     -4982.9335      176.90919      174.03534      50.992615    
     47500  -5009.046       28.916696     -4980.1293      176.83747      173.96671      51.013226    
     47600  -5009.2444      31.985547     -4977.2588      176.77457      173.89658      51.033838    
     47700  -5007.1475      31.417128     -4975.7303      176.70682      173.82355      51.054449    
     47800  -5005.5426      30.842799     -4974.6998      176.63811      173.75562      51.075061    
     47900  -5002.9093      29.678943     -4973.2304      176.57464      173.68151      51.095672    
     48000  -5002.0871      30.543353     -4971.5438      176.50574      173.6056       51.116283    
     48100  -5000.0722      30.056576     -4970.0157      176.43629      173.53884      51.136895    
     48200  -4998.0393      29.71778      -4968.3215      176.36612      173.46147      51.157506    
     48300  -4997.3725      30.52333      -4966.8491      176.29852      173.38917      51.178118    
     48400  -4995.8603      29.358592     -4966.5017      176.22819      173.31521      51.198729    
     48500  -4994.3939      28.471471     -4965.9224      176.15904      173.23685      51.21934     
     48600  -4993.7943      30.825761     -4962.9685      176.08636      173.16547      51.239952    
     48700  -4990.9815      31.680906     -4959.3006      176.01506      173.08972      51.260563    
     48800  -4988.0358      30.218928     -4957.8169      175.94534      173.00884      51.281175    
     48900  -4987.7518      30.287039     -4957.4648      175.87233      172.93245      51.301786    
     49000  -4986.7559      29.731954     -4957.024       175.80174      172.85718      51.322397    
     49100  -4984.1416      28.865028     -4955.2765      175.72687      172.77551      51.343009    
     49200  -4982.2551      29.463951     -4952.7911      175.65275      172.70159      51.36362     
     49300  -4981.1912      30.781594     -4950.4096      175.58084      172.62137      51.384232    
     49400  -4979.7615      30.846331     -4948.9152      175.50469      172.53859      51.404843    
     49500  -4978.9835      29.711187     -4949.2723      175.43048      172.4633       51.425455    
     49600  -4978.9411      30.599835     -4948.3412      175.35444      172.37951      51.446066    
     49700  -4975.0148      29.635717     -4945.3791      175.27922      172.29856      51.466677    
     49800  -4973.8049      31.315111     -4942.4898      175.20251      172.21893      51.487289    
     49900  -4970.4188      29.706308     -4940.7125      175.12635      172.1358       51.5079      
     50000  -4970.0117      30.24876      -4939.763       175.04755      172.05324      51.528512    
     50100  -4968.345       29.461212     -4938.8838      174.9705       171.97313      51.549123    
     50200  -4968.3412      29.531311     -4938.8099      174.89342      171.8864       51.569734    
     50300  -4967.03        28.948559     -4938.0815      174.81274      171.80311      51.590346    
     50400  -4964.4939      29.948543     -4934.5454      174.73414      171.7218       51.610957    
     50500  -4961.6895      30.059184     -4931.6303      174.65459      171.63256      51.631569    
     50600  -4960.72        31.047745     -4929.6723      174.57561      171.54973      51.65218     
     50700  -4957.8986      29.794523     -4928.104       174.49454      171.46212      51.672791    
     50800  -4957.7635      30.323063     -4927.4404      174.41461      171.37578      51.693403    
     50900  -4956.6237      29.441262     -4927.1824      174.3301       171.29044      51.714014    
     51000  -4955.6701      29.989415     -4925.6807      174.25076      171.20337      51.734626    
     51100  -4952.6534      31.071798     -4921.5816      174.16978      171.11271      51.755237    
     51200  -4950.1113      31.067822     -4919.0435      174.08304      171.02778      51.775848    
     51300  -4948.393       30.324428     -4918.0685      174.00265      170.93996      51.79646     
     51400  -4948.0526      30.277634     -4917.775       173.91628      170.84767      51.817071    
     51500  -4947.6483      30.880739     -4916.7675      173.83374      170.76338      51.837683    
     51600  -4945.2711      30.910245     -4914.3609      173.74955      170.66914      51.858294    
     51700  -4941.9522      32.295086     -4909.6571      173.6643       170.58101      51.878905    
     51800  -4938.3661      30.603457     -4907.7626      173.57901      170.49111      51.899517    
     51900  -4937.8537      30.052306     -4907.8014      173.49618      170.3975       51.920128    
     52000  -4937.9179      30.589315     -4907.3286      173.40959      170.30836      51.94074     
     52100  -4936.3859      30.068947     -4906.317       173.32259      170.21718      51.961351    
     52200  -4934.5947      29.966708     -4904.628       173.23689      170.12531      51.981962    
     52300  -4931.0323      29.280577     -4901.7517      173.1476       170.03455      52.002574    
     52400  -4929.0461      30.70647      -4898.3396      173.06516      169.94204      52.023185    
     52500  -4929.4474      32.149858     -4897.2976      172.97782      169.84527      52.043797    
     52600  -4928.1663      30.639006     -4897.5273      172.88849      169.75541      52.064408    
     52700  -4925.8654      29.823968     -4896.0415      172.80354      169.66359      52.085019    
     52800  -4923.556       29.552131     -4894.0039      172.71458      169.56774      52.105631    
     52900  -4921.7363      29.957478     -4891.7788      172.62449      169.47618      52.126242    
     53000  -4920.6657      31.613484     -4889.0522      172.54037      169.38286      52.146854    
     53100  -4918.508       31.219734     -4887.2882      172.44942      169.28882      52.167465    
     53200  -4917.1717      29.584052     -4887.5876      172.35821      169.197        52.188076    
     53300  -4916.8356      30.175264     -4886.6603      172.2756       169.10217      52.208688    
     53400  -4914.7588      30.068588     -4884.6902      172.18396      169.00473      52.229299    
     53500  -4911.5119      30.165029     -4881.3469      172.09673      168.91422      52.249911    
     53600  -4909.7626      31.932924     -4877.8297      172.00845      168.82001      52.270522    
     53700  -4909.6896      32.750657     -4876.9389      171.91642      168.72605      52.291133    
     53800  -4907.7869      31.707422     -4876.0794      171.82978      168.63412      52.311745    
     53900  -4905.6586      30.088049     -4875.5705      171.74174      168.53772      52.332356    
     54000  -4905.2687      30.591126     -4874.6776      171.65208      168.44604      52.352968    
     54100  -4903.0062      29.933544     -4873.0726      171.56222      168.35208      52.373579    
     54200  -4900.9351      30.2093       -4870.7258      171.47707      168.25928      52.394191    
     54300  -4899.4989      32.253325     -4867.2456      171.38689      168.16314      52.414802    
     54400  -4895.7447      30.771673     -4864.9731      171.30159      168.07065      52.435413    
     54500  -4895.8065      30.845353     -4864.9612      171.21284      167.98003      52.456025    
     54600  -4893.6078      29.084241     -4864.5236      171.11941      167.88733      52.476636    
     54700  -4892.1072      29.623796     -4862.4834      171.03707      167.79625      52.497248    
     54800  -4889.8161      29.951053     -4859.8651      170.94943      167.70093      52.517859    
     54900  -4888.2608      31.537379     -4856.7234      170.85981      167.60989      52.53847     
     55000  -4885.5639      32.153368     -4853.4105      170.7763       167.52083      52.559082    
     55100  -4884.2549      31.89868      -4852.3562      170.68726      167.43009      52.579693    
     55200  -4884.1146      31.237749     -4852.8768      170.60237      167.33785      52.600305    
     55300  -4882.2083      30.104572     -4852.1037      170.51978      167.24583      52.620916    
     55400  -4880.8256      30.263263     -4850.5624      170.43235      167.1592       52.641527    
     55500  -4877.9037      29.51151      -4848.3922      170.34337      167.07054      52.662139    
     55600  -4874.925       30.273103     -4844.6519      170.26381      166.98169      52.68275     
     55700  -4873.8387      31.995765     -4841.8429      170.18031      166.89144      52.703362    
     55800  -4871.9962      30.063399     -4841.9328      170.09623      166.80259      52.723973    
     55900  -4871.6082      30.362679     -4841.2456      170.01279      166.71847      52.744584    
     56000  -4870.6649      31.290395     -4839.3745      169.92656      166.63406      52.765196    
     56100  -4866.875       29.623256     -4837.2517      169.84818      166.54483      52.785807    
     56200  -4865.7908      31.042908     -4834.7479      169.77031      166.45655      52.806419    
     56300  -4863.5206      30.614614     -4832.906       169.68774      166.37605      52.82703     
     56400  -4862.653       30.040298     -4832.6127      169.60346      166.29283      52.847641    
     56500  -4862.9848      31.308762     -4831.676       169.52421      166.21154      52.868253    
     56600  -4858.7201      29.640937     -4829.0792      169.44792      166.12687      52.888864    
     56700  -4855.5121      30.368135     -4825.1439      169.37281      166.03933      52.909476    
     56800  -4852.9263      30.708975     -4822.2173      169.29322      165.96329      52.930087    
     56900  -4852.3188      31.252395     -4821.0664      169.21205      165.8857       52.950698    
     57000  -4850.704       30.612241     -4820.0917      169.13811      165.80468      52.97131     
     57100  -4850.1168      30.670415     -4819.4464      169.06361      165.72343      52.991921    
     57200  -4848.541       30.129851     -4818.4112      168.99098      165.64506      53.012533    
     57300  -4846.6356      30.31874      -4816.3169      168.91528      165.56988      53.033144    
     57400  -4843.3638      31.360392     -4812.0034      168.83694      165.49622      53.053755    
     57500  -4840.8234      31.896029     -4808.9273      168.76927      165.41846      53.074367    
     57600  -4840.301       31.77785      -4808.5232      168.70039      165.34093      53.094978    
     57700  -4838.3245      30.649125     -4807.6754      168.62649      165.26874      53.11559     
     57800  -4836.6522      30.206818     -4806.4454      168.55626      165.19741      53.136201    
     57900  -4835.6881      30.334049     -4805.3541      168.48654      165.12431      53.156812    
     58000  -4833.2118      29.557867     -4803.6539      168.42078      165.05143      53.177424    
     58100  -4831.7863      30.197033     -4801.5893      168.35575      164.97797      53.198035    
     58200  -4829.368       31.248263     -4798.1198      168.2838       164.9123       53.218647    
     58300  -4825.7738      30.317583     -4795.4562      168.21578      164.8463       53.239258    
     58400  -4825.0647      30.348271     -4794.7165      168.15457      164.77462      53.25987     
     58500  -4825.3865      31.071551     -4794.315       168.09117      164.70573      53.280481    
     58600  -4821.9023      29.404142     -4792.4981      168.02907      164.63845      53.301092    
     58700  -4820.7804      31.089501     -4789.6909      167.96427      164.57495      53.321704    
     58800  -4818.4417      31.384082     -4787.0576      167.89906      164.51385      53.342315    
     58900  -4816.028       31.059651     -4784.9684      167.84318      164.44388      53.362927    
     59000  -4814.8281      31.685676     -4783.1425      167.78575      164.38032      53.383538    
     59100  -4811.1627      29.561844     -4781.6009      167.72248      164.32079      53.404149    
     59200  -4811.2667      30.525423     -4780.7413      167.66212      164.25912      53.424761    
     59300  -4809.466       28.877277     -4780.5887      167.60526      164.20152      53.445372    
     59400  -4806.6482      28.446245     -4778.202       167.54975      164.13665      53.465984    
     59500  -4804.5115      30.709732     -4773.8018      167.49689      164.0748       53.486595    
     59600  -4801.5158      30.17686      -4771.339       167.43654      164.02351      53.507206    
     59700  -4799.5261      30.001477     -4769.5246      167.38082      163.966        53.527818    
     59800  -4798.1084      29.670434     -4768.438       167.32946      163.90559      53.548429    
     59900  -4796.5593      28.941567     -4767.6177      167.27705      163.85118      53.569041    
     60000  -4795.608       29.991367     -4765.6167      167.22445      163.79595      53.589652    
     60100  -4791.6224      30.448263     -4761.1741      167.16949      163.74371      53.610263    
     60200  -4789.5302      31.567845     -4757.9624      167.11837      163.69198      53.630875    
     60300  -4788.3802      31.878924     -4756.5012      167.07398      163.63444      53.651486    
     60400  -4785.6314      29.539043     -4756.0923      167.02174      163.5818       53.672098    
     60500  -4784.0307      29.763456     -4754.2672      166.97119      163.53516      53.692709    
     60600  -4782.8909      31.044303     -4751.8466      166.92388      163.48388      53.71332     
     60700  -4779.6402      30.140207     -4749.5         166.87521      163.43337      53.733932    
     60800  -4778.0791      30.725897     -4747.3532      166.83268      163.38247      53.754543    
     60900  -4775.5346      30.250789     -4745.2838      166.7859       163.33288      53.775155    
     61000  -4773.9006      28.429686     -4745.4709      166.73651      163.29066      53.795766    
     61100  -4773.5522      29.844693     -4743.7075      166.6924       163.24143      53.816377    
     61200  -4769.3928      29.705817     -4739.687       166.64986      163.19368      53.836989    
     61300  -4766.4763      30.319261     -4736.1571      166.60607      163.14878      53.8576      
     61400  -4765.2251      31.397945     -4733.8271      166.56353      163.10341      53.878212    
     61500  -4762.6702      30.087693     -4732.5825      166.51697      163.06181      53.898823    
     61600  -4762.772       30.239183     -4732.5328      166.4766       163.01832      53.919434    
     61700  -4759.2687      29.279123     -4729.9896      166.4383       162.97046      53.940046    
     61800  -4756.5625      29.762122     -4726.8004      166.39349      162.93332      53.960657    
     61900  -4753.8088      30.437276     -4723.3715      166.35309      162.89096      53.981269    
     62000  -4751.6724      30.789626     -4720.8828      166.31286      162.84892      54.00188     
     62100  -4751.1879      30.641913     -4720.546       166.27539      162.80815      54.022491    
     62200  -4749.1938      29.484888     -4719.7089      166.23978      162.76378      54.043103    
     62300  -4747.1165      30.976162     -4716.1403      166.19769      162.72718      54.063714    
     62400  -4743.1758      30.840202     -4712.3356      166.15829      162.69132      54.084326    
     62500  -4740.8745      31.18596      -4709.6886      166.12423      162.64783      54.104937    
     62600  -4738.4618      30.291691     -4708.1701      166.08731      162.61076      54.125549    
     62700  -4737.2297      29.080729     -4708.149       166.05204      162.57089      54.14616     
     62800  -4735.4644      29.745889     -4705.7185      166.01556      162.53389      54.166771    
     62900  -4732.0639      30.172971     -4701.8909      165.97837      162.50177      54.187383    
     63000  -4729.937       31.327493     -4698.6095      165.94589      162.45864      54.207994    
     63100  -4727.5515      31.048765     -4696.5027      165.91322      162.42269      54.228606    
     63200  -4725.45        30.670494     -4694.7795      165.87649      162.39064      54.249217    
     63300  -4723.0037      30.353608     -4692.6501      165.84359      162.352        54.269828    
     63400  -4721.1187      30.722449     -4690.3962      165.80873      162.31848      54.29044     
     63500  -4718.5693      30.005593     -4688.5637      165.77974      162.28376      54.311051    
     63600  -4717.4661      29.960177     -4687.5059      165.74623      162.24579      54.331663    
     63700  -4716.0149      29.878691     -4686.1362      165.70969      162.21776      54.352274    
     63800  -4712.6292      29.587687     -4683.0416      165.67992      162.18233      54.372885    
     63900  -4709.7251      31.432086     -4678.293       165.65018      162.14697      54.393497    
     64000  -4705.8201      30.156821     -4675.6633      165.61687      162.11638      54.414108    
     64100  -4704.964       30.711571     -4674.2524      165.58774      162.08258      54.43472     
     64200  -4704.2889      31.030872     -4673.258       165.55374      162.05323      54.455331    
     64300  -4701.773       30.728607     -4671.0444      165.52424      162.02111      54.475942    
     64400  -4698.111       29.796017     -4668.315       165.49611      161.98652      54.496554    
     64500  -4695.5988      29.980481     -4665.6184      165.46442      161.95981      54.517165    
     64600  -4693.4336      30.738285     -4662.6953      165.43413      161.92733      54.537777    
     64700  -4690.2596      30.297473     -4659.9621      165.40607      161.89657      54.558388    
     64800  -4686.6288      29.893517     -4656.7353      165.37614      161.86775      54.578999    
     64900  -4686.2598      31.54741      -4654.7123      165.3493       161.83493      54.599611    
     65000  -4683.2667      29.722016     -4653.5447      165.31643      161.808        54.620222    
     65100  -4682.3105      30.286468     -4652.024       165.28814      161.78126      54.640834    
     65200  -4679.3135      30.4119       -4648.9016      165.26157      161.74654      54.661445    
     65300  -4674.3065      30.23571      -4644.0708      165.2331       161.72056      54.682056    
     65400  -4671.3698      30.667818     -4640.702       165.20654      161.69101      54.702668    
     65500  -4670.3096      31.290231     -4639.0194      165.17619      161.66178      54.723279    
     65600  -4668.5471      31.103208     -4637.4439      165.1474       161.63682      54.743891    
     65700  -4666.091       30.158942     -4635.932       165.12466      161.60603      54.764502    
     65800  -4664.8346      30.716243     -4634.1184      165.09286      161.57827      54.785113    
     65900  -4662.0446      29.942905     -4632.1017      165.06694      161.55247      54.805725    
     66000  -4658.5209      30.153082     -4628.3678      165.04195      161.52372      54.826336    
     66100  -4655.1833      31.4283       -4623.755       165.01159      161.49719      54.846948    
     66200  -4652.7725      30.77734      -4621.9951      164.98854      161.46783      54.867559    
     66300  -4650.8881      29.80181      -4621.0863      164.96124      161.44322      54.88817     
     66400  -4648.2106      29.510088     -4618.7005      164.93249      161.41664      54.908782    
     66500  -4645.9604      29.924607     -4616.0358      164.90979      161.38741      54.929393    
     66600  -4644.3635      30.824176     -4613.5393      164.88163      161.36243      54.950005    
     66700  -4641.9366      29.9022       -4612.0344      164.85666      161.33534      54.970616    
     66800  -4638.2725      28.101036     -4610.1715      164.83067      161.30958      54.991227    
     66900  -4636.5529      30.452227     -4606.1007      164.80243      161.28414      55.011839    
     67000  -4633.3554      31.777624     -4601.5778      164.7812       161.25587      55.03245     
     67100  -4629.0704      30.28917      -4598.7812      164.75407      161.2311       55.053062    
     67200  -4628.4017      31.306748     -4597.0949      164.72744      161.20479      55.073673    
     67300  -4624.8413      29.831947     -4595.0094      164.70422      161.17876      55.094285    
     67400  -4621.8265      29.113582     -4592.7129      164.67726      161.15558      55.114896    
     67500  -4619.9882      29.608725     -4590.3795      164.65305      161.12699      55.135507    
     67600  -4617.385       29.175113     -4588.2099      164.62736      161.10343      55.156119    
     67700  -4616.5374      29.757162     -4586.7803      164.60241      161.07765      55.17673     
     67800  -4613.0364      29.19979      -4583.8366      164.57733      161.05081      55.197342    
     67900  -4608.3983      29.339852     -4579.0584      164.55179      161.02835      55.217953    
     68000  -4605.9099      31.107411     -4574.8025      164.52806      161.00129      55.238564    
     68100  -4604.3917      31.945858     -4572.4458      164.50363      160.97541      55.259176    
     68200  -4600.6795      29.867677     -4570.8118      164.47812      160.95228      55.279787    
     68300  -4599.2863      30.813541     -4568.4728      164.45391      160.92624      55.300399    
     68400  -4594.6688      28.946006     -4565.7228      164.42813      160.90267      55.32101     
     68500  -4593.5808      30.683913     -4562.8969      164.40485      160.87642      55.341621    
[...]
     81600  -5340.1768      27.881832     -5312.295       160.49771      157.08687      58.041715    
     81700  -5340.1377      26.428474     -5313.7092      160.45598      157.05098      58.062327    
     81800  -5340.2038      29.326874     -5310.8769      160.40885      157.00899      58.082938    
     81900  -5338.962       32.767812     -5306.1942      160.35955      156.972        58.10355     
     82000  -5336.3202      32.325049     -5303.9952      160.31654      156.93027      58.124161    
     82100  -5338.7725      32.277658     -5306.4949      160.27135      156.88964      58.144772    
     82200  -5341.6255      30.610789     -5311.0147      160.21725      156.85191      58.165384    
     82300  -5341.7459      28.030574     -5313.7154      160.17502      156.80603      58.185995    
     82400  -5341.0977      28.459917     -5312.6378      160.12691      156.76405      58.206607    
     82500  -5338.7362      30.625489     -5308.1107      160.07045      156.71819      58.227218    
     82600  -5336.8471      32.23179      -5304.6153      160.02321      156.66766      58.247829    
     82700  -5337.1944      32.059841     -5305.1346      159.96986      156.623        58.268441    
     82800  -5340.5097      31.886685     -5308.623       159.90817      156.57824      58.289052    
     82900  -5342.0519      29.7243       -5312.3276      159.85188      156.52901      58.309664    
     83000  -5340.8694      27.892914     -5312.9765      159.79599      156.48246      58.330275    
     83100  -5340.0843      30.319706     -5309.7646      159.73389      156.43401      58.350886    
     83200  -5337.8259      31.807837     -5306.0181      159.67362      156.38053      58.371498    
     83300  -5336.8829      31.96911      -5304.9138      159.61559      156.33022      58.392109    
     83400  -5338.1257      31.088132     -5307.0376      159.55354      156.28093      58.412721    
     83500  -5340.3889      29.700289     -5310.6886      159.48744      156.22191      58.433332    
     83600  -5340.9485      28.50812      -5312.4403      159.42202      156.16489      58.453943    
     83700  -5339.7488      28.901575     -5310.8472      159.35682      156.10914      58.474555    
     83800  -5337.5517      30.006668     -5307.545       159.28573      156.04815      58.495166    
     83900  -5336.9384      31.721815     -5305.2165      159.21517      155.98641      58.515778    
     84000  -5338.3797      32.271279     -5306.1084      159.14145      155.93216      58.536389    
     84100  -5341.0234      31.868645     -5309.1547      159.06749      155.86816      58.557       
     84200  -5340.9563      29.244196     -5311.7121      158.99612      155.80373      58.577612    
     84300  -5340.2146      28.606101     -5311.6085      158.91914      155.73908      58.598223    
     84400  -5339.7864      30.428293     -5309.3581      158.84574      155.67376      58.618835    
     84500  -5339.1124      32.182863     -5306.9296      158.76763      155.60469      58.639446    
     84600  -5337.3871      31.3608       -5306.0263      158.68392      155.53824      58.660058    
     84700  -5337.3517      30.199772     -5307.1519      158.60603      155.46888      58.680669    
     84800  -5339.5035      29.799586     -5309.7039      158.52221      155.39452      58.70128     
     84900  -5340.9029      29.312154     -5311.5908      158.43413      155.32309      58.721892    
     85000  -5341.7905      30.327531     -5311.4629      158.35056      155.24903      58.742503    
     85100  -5338.649       29.543535     -5309.1055      158.26459      155.17143      58.763115    
     85200  -5337.8355      31.350206     -5306.4853      158.17066      155.09508      58.783726    
     85300  -5336.6286      30.799201     -5305.8294      158.0804       155.01573      58.804337    
     85400  -5338.0956      30.349137     -5307.7465      157.98916      154.93468      58.824949    
     85500  -5340.3823      29.943263     -5310.439       157.8888       154.8555       58.84556     
     85600  -5340.6357      28.722903     -5311.9128      157.79498      154.77389      58.866172    
     85700  -5339.0857      28.315902     -5310.7698      157.69651      154.68657      58.886783    
     85800  -5338.4749      30.758042     -5307.7168      157.59171      154.60206      58.907394    
     85900  -5337.0912      31.960883     -5305.1303      157.4913       154.51492      58.928006    
     86000  -5336.0499      30.047381     -5306.0025      157.38959      154.42752      58.948617    
     86100  -5339.1689      29.509063     -5309.6598      157.28017      154.33984      58.969229    
     86200  -5341.2543      28.788542     -5312.4657      157.176        154.24441      58.98984     
     86300  -5341.0568      28.831908     -5312.2249      157.06895      154.15247      59.010451    
     86400  -5339.8807      30.756926     -5309.1238      156.95968      154.06202      59.031063    
     86500  -5337.2504      31.705943     -5305.5444      156.85134      153.96326      59.051674    
     86600  -5337.7081      32.98471      -5304.7234      156.74041      153.8699       59.072286    
     86700  -5338.4145      30.602565     -5307.8119      156.62317      153.77653      59.092897    
     86800  -5340.5144      28.760405     -5311.754       156.51137      153.67568      59.113508    
     86900  -5341.2016      28.227072     -5312.9745      156.39543      153.57671      59.13412     
     87000  -5339.8133      29.187366     -5310.6259      156.27573      153.47922      59.154731    
     87100  -5338.6567      32.272536     -5306.3842      156.15946      153.37722      59.175343    
     87200  -5337.2368      32.808316     -5304.4285      156.03736      153.27619      59.195954    
     87300  -5338.9853      31.668006     -5307.3172      155.91734      153.1746       59.216565    
     87400  -5339.832       28.334475     -5311.4975      155.80076      153.06933      59.237177    
     87500  -5341.8356      28.694874     -5313.1407      155.67512      152.96751      59.257788    
     87600  -5340.4916      29.432069     -5311.0595      155.5553       152.86288      59.2784      
     87700  -5338.0316      31.159301     -5306.8723      155.43642      152.75496      59.299011    
     87800  -5335.8413      31.203519     -5304.6378      155.30891      152.65096      59.319622    
     87900  -5337.4171      30.936004     -5306.4811      155.18562      152.54823      59.340234    
     88000  -5340.6147      30.265402     -5310.3493      155.06418      152.44263      59.360845    
     88100  -5341.8147      29.263964     -5312.5507      154.93596      152.33966      59.381457    
     88200  -5339.6311      28.23574      -5311.3954      154.80983      152.23164      59.402068    
     88300  -5339.4384      31.701907     -5307.7365      154.69045      152.12368      59.422679    
     88400  -5337.8801      32.740715     -5305.1394      154.56256      152.02133      59.443291    
     88500  -5337.0198      30.982288     -5306.0375      154.43537      151.91544      59.463902    
     88600  -5338.7711      29.788416     -5308.9827      154.3148       151.80525      59.484514    
     88700  -5340.5695      29.315296     -5311.2542      154.18894      151.70192      59.505125    
     88800  -5340.4065      28.97193      -5311.4345      154.06296      151.59555      59.525737    
     88900  -5340.0991      30.535196     -5309.5639      153.94106      151.48828      59.546348    
     89000  -5339.3695      32.34072      -5307.0288      153.8176       151.38751      59.566959    
     89100  -5337.1569      31.414755     -5305.7421      153.69366      151.2776       59.587571    
     89200  -5339.1502      31.864821     -5307.2854      153.5767       151.16984      59.608182    
     89300  -5339.3345      29.067066     -5310.2674      153.45175      151.07077      59.628794    
     89400  -5339.6603      27.865868     -5311.7945      153.33177      150.96725      59.649405    
     89500  -5340.2569      29.768164     -5310.4887      153.21323      150.8627       59.670016    
     89600  -5338.8889      31.522204     -5307.3667      153.09362      150.76466      59.690628    
     89700  -5338.0161      32.336631     -5305.6795      152.97326      150.66317      59.711239    
     89800  -5338.7542      31.388786     -5307.3655      152.85715      150.56195      59.731851    
     89900  -5340.303       29.928041     -5310.375       152.73945      150.46569      59.752462    
     90000  -5339.8195      28.140021     -5311.6795      152.62534      150.36688      59.773073    
     90100  -5340.3668      29.991438     -5310.3753      152.51418      150.26604      59.793685    
     90200  -5337.4206      29.653318     -5307.7673      152.40032      150.17122      59.814296    
     90300  -5338.1345      31.868587     -5306.2659      152.29311      150.07724      59.834908    
     90400  -5338.3041      31.217179     -5307.087       152.18322      149.97909      59.855519    
     90500  -5339.675       30.367966     -5309.307       152.07158      149.8893       59.87613     
     90600  -5339.977       29.108349     -5310.8687      151.96559      149.79839      59.896742    
     90700  -5340.2046      29.573911     -5310.6307      151.86021      149.70736      59.917353    
     90800  -5339.5182      30.874751     -5308.6435      151.75187      149.62108      59.937965    
     90900  -5337.3624      30.59477      -5306.7677      151.65221      149.53179      59.958576    
     91000  -5337.889       31.18362      -5306.7054      151.55224      149.44363      59.979187    
     91100  -5338.5822      29.783174     -5308.799       151.45027      149.36048      59.999799    
     91200  -5339.2535      28.277576     -5310.9759      151.35346      149.27621      60.02041     
     91300  -5342.0585      30.734451     -5311.3241      151.25728      149.19529      60.041022    
     91400  -5340.094       30.497188     -5309.5968      151.16191      149.11081      60.061633    
     91500  -5339.4608      32.123908     -5307.3369      151.06715      149.02722      60.082244    
     91600  -5338.1577      31.745977     -5306.4117      150.97509      148.95258      60.102856    
     91700  -5338.6031      30.537458     -5308.0657      150.8799       148.87157      60.123467    
     91800  -5340.0409      29.420366     -5310.6205      150.79038      148.7948       60.144079    
     91900  -5340.7961      29.372901     -5311.4232      150.70058      148.72162      60.16469     
     92000  -5339.4066      29.55549      -5309.8511      150.61507      148.6459       60.185301    
     92100  -5339.0884      31.664765     -5307.4236      150.52783      148.57314      60.205913    
     92200  -5337.6185      31.156713     -5306.4618      150.4426       148.50305      60.226524    
     92300  -5338.2121      30.533745     -5307.6784      150.36196      148.4328       60.247136    
     92400  -5340.4955      30.698419     -5309.7971      150.28254      148.36259      60.267747    
     92500  -5340.4997      29.624126     -5310.8756      150.20108      148.29336      60.288358    
     92600  -5339.9514      29.68579      -5310.2656      150.12284      148.22855      60.30897     
     92700  -5338.8694      30.476876     -5308.3925      150.04644      148.15968      60.329581    
     92800  -5338.0533      31.090468     -5306.9629      149.96807      148.0925       60.350193    
     92900  -5338.5231      31.399778     -5307.1233      149.89248      148.03221      60.370804    
     93000  -5340.1406      31.304914     -5308.8357      149.81932      147.96581      60.391416    
     93100  -5340.4619      29.784071     -5310.6778      149.74516      147.90171      60.412027    
     93200  -5340.5644      29.470405     -5311.094       149.67118      147.84083      60.432638    
     93300  -5340.0772      30.261692     -5309.8155      149.60333      147.77917      60.45325     
     93400  -5338.2726      30.603856     -5307.6688      149.53479      147.72075      60.473861    
     93500  -5339.1022      32.255327     -5306.8469      149.46292      147.66382      60.494473    
     93600  -5339.5543      31.274341     -5308.2799      149.39697      147.60334      60.515084    
     93700  -5340.2896      29.711882     -5310.5777      149.3298       147.54775      60.535695    
     93800  -5340.3944      28.596261     -5311.7981      149.26344      147.49221      60.556307    
     93900  -5340.267       29.664437     -5310.6026      149.19851      147.43322      60.576918    
     94000  -5338.8973      30.979305     -5307.918       149.13344      147.38247      60.59753     
     94100  -5338.9386      32.81392      -5306.1246      149.06925      147.33017      60.618141    
     94200  -5339.185       32.178538     -5307.0064      149.00943      147.27192      60.638752    
     94300  -5339.1261      29.301011     -5309.825       148.94713      147.2195       60.659364    
     94400  -5340.4764      28.370957     -5312.1055      148.88576      147.16968      60.679975    
     94500  -5341.543       29.83152      -5311.7115      148.82888      147.11455      60.700587    
     94600  -5338.0804      28.995596     -5309.0848      148.77002      147.06577      60.721198    
     94700  -5337.7519      31.434915     -5306.3169      148.71217      147.01619      60.741809    
     94800  -5338.2743      32.261073     -5306.0133      148.65731      146.96496      60.762421    
     94900  -5340.0985      31.010478     -5309.0881      148.60017      146.91765      60.783032    
     95000  -5339.9648      27.891244     -5312.0736      148.543        146.86845      60.803644    
     95100  -5340.0341      27.790961     -5312.2431      148.49015      146.81976      60.824255    
     95200  -5339.732       30.200707     -5309.5313      148.43401      146.77627      60.844866    
     95300  -5338.6043      32.307744     -5306.2965      148.37909      146.72769      60.865478    
     95400  -5338.9388      32.871249     -5306.0675      148.32666      146.67974      60.886089    
     95500  -5339.752       30.875153     -5308.8768      148.27199      146.6337       60.906701    
     95600  -5340.5505      29.034805     -5311.5157      148.21783      146.58828      60.927312    
     95700  -5340.7617      28.950353     -5311.8114      148.16652      146.54128      60.947923    
     95800  -5340.0997      30.646722     -5309.4529      148.11055      146.50024      60.968535    
     95900  -5337.771       30.717537     -5307.0535      148.05993      146.45684      60.989146    
     96000  -5337.7733      31.236433     -5306.5368      148.0102       146.40811      61.009758    
     96100  -5339.2519      30.909524     -5308.3423      147.95861      146.36727      61.030369    
     96200  -5339.6304      29.091353     -5310.5391      147.90869      146.32315      61.05098     
     96300  -5340.4613      29.217199     -5311.2441      147.86238      146.28009      61.071592    
     96400  -5340.1139      29.898276     -5310.2156      147.81274      146.24059      61.092203    
     96500  -5339.9587      31.574196     -5308.3845      147.76648      146.19624      61.112815    
     96600  -5338.5148      31.188996     -5307.3258      147.71991      146.15146      61.133426    
     96700  -5338.7383      30.703754     -5308.0345      147.66658      146.11568      61.154037    
     96800  -5340.6683      30.786971     -5309.8813      147.62057      146.07403      61.174649    
     96900  -5340.0822      28.791051     -5311.2911      147.57513      146.03153      61.19526     
     97000  -5339.9283      29.151329     -5310.777       147.52797      145.99174      61.215872    
     97100  -5339.4762      30.764583     -5308.7117      147.48289      145.94934      61.236483    
     97200  -5338.3375      30.922533     -5307.415       147.43635      145.90761      61.257095    
     97300  -5337.9066      29.901692     -5308.0049      147.38892      145.87312      61.277706    
     97400  -5338.8601      29.068823     -5309.7913      147.3455       145.83082      61.298317    
     97500  -5340.1109      29.290627     -5310.8203      147.29661      145.79008      61.318929    
     97600  -5340.2707      29.706955     -5310.5638      147.24895      145.75231      61.33954     
     97700  -5340.1683      30.870007     -5309.2983      147.2041       145.71099      61.360152    
     97800  -5338.8262      30.674502     -5308.1517      147.15369      145.67382      61.380763    
     97900  -5339.0221      31.111692     -5307.9104      147.1068       145.63594      61.401374    
     98000  -5339.0011      30.292488     -5308.7086      147.06516      145.59356      61.421986    
     98100  -5339.3364      29.531823     -5309.8046      147.01813      145.55563      61.442597    
     98200  -5339.3558      29.190584     -5310.1652      146.97146      145.51981      61.463209    
     98300  -5340.1104      30.394755     -5309.7156      146.93396      145.47806      61.48382     
     98400  -5338.9614      30.162647     -5308.7988      146.88946      145.44104      61.504431    
     98500  -5340.4307      32.178615     -5308.2521      146.84284      145.40358      61.525043    
     98600  -5339.7531      31.078085     -5308.675       146.8024       145.36678      61.545654    
     98700  -5340.2651      30.547467     -5309.7176      146.75811      145.33113      61.566266    
     98800  -5339.877       29.32816      -5310.5489      146.713        145.29051      61.586877    
     98900  -5339.4813      29.514434     -5309.9669      146.67147      145.25101      61.607488    
     99000  -5340.1103      31.453411     -5308.6569      146.62709      145.21468      61.6281      
     99100  -5338.6703      30.689809     -5307.9805      146.58267      145.17365      61.648711    
     99200  -5339.49        30.68856      -5308.8014      146.53968      145.13597      61.669323    
     99300  -5340.1134      30.104767     -5310.0087      146.49543      145.10134      61.689934    
     99400  -5340.3611      30.113137     -5310.248       146.45285      145.0612       61.710545    
     99500  -5340.2983      30.245298     -5310.053       146.40885      145.02335      61.731157    
     99600  -5340.7611      31.187578     -5309.5735      146.3626       144.98509      61.751768    
     99700  -5340.862       31.811244     -5309.0507      146.32236      144.94897      61.77238     
     99800  -5339.1174      30.274781     -5308.8426      146.27965      144.90934      61.792991    
     99900  -5340.8847      31.62297      -5309.2617      146.23156      144.87407      61.813602    
    100000  -5340.0557      30.0778       -5309.9779      146.19041      144.83289      61.834214    
Loop time of 49876.9 on 12 procs for 100000 steps with 784 atoms

Performance: 0.173 ns/day, 138.547 hours/ns, 2.005 timesteps/s, 1.572 katom-step/s
40.1% CPU use with 12 MPI tasks x 1 OpenMP threads

MPI task timing breakdown:
Section |  min time  |  avg time  |  max time  |%varavg| %total
---------------------------------------------------------------
Pair    | 0.42306    | 166.88     | 1031       |2882.6 |  0.33
Neigh   | 0.0023462  | 0.31776    | 1.9044     | 125.1 |  0.00
Comm    | 40.708     | 361.52     | 2053.2     |3749.2 |  0.72
Output  | 215.34     | 222.02     | 227.5      |  26.7 |  0.45
Modify  | 40226      | 42782      | 43282      | 525.2 | 85.77
Other   |            | 6344       |            |       | 12.72

Nlocal:        65.3333 ave         394 max           0 min
Histogram: 10 0 0 0 0 0 0 0 0 2
Nghost:        128.333 ave         772 max           0 min
Histogram: 10 0 0 0 0 0 0 0 0 2
Neighs:              0 ave           0 max           0 min
Histogram: 12 0 0 0 0 0 0 0 0 0

Total # of neighbors = 0
Ave neighs/atom = 0
Neighbor list builds = 304
Dangerous builds = 0
Total wall time: 13:51:20
