LAMMPS (2 Aug 2023 - Update 3)
OMP_NUM_THREADS environment is not set. Defaulting to 1 thread. (src/comm.cpp:98)
  using 1 OpenMP thread(s) per MPI task

# 1------general---------------
units                             metal      #单位为lammps 中的metel 类型
dimension                    3          #模拟的维度 三维
boundary                    p p p      #周期边界条件
atom_style                  atomic   #原子类型自动
atom_modify              map array sort 100 2.0
neighbor                    3.0 bin
neigh_modify            every 1 delay 0 check yes
#2 -----global variable-------定义全局变量，方便统一修改；
variable temperature equal 300
variable tstep equal 0.001
variable pressure equal 0
variable thermalstep equal 100
variable dumpstep equal 1000
variable relaxtime equal 0
variable totaltime equal 100000
variable deformrate equal 5e-3
#3 -------model------------
#box tilt large
read_data     1.lmp
Reading data file ...
  orthogonal box = (-100 -100 -2.3312511) to (100 100 38.891558)
  3 by 4 by 1 MPI processor grid
  reading atoms ...
  784 atoms
  read_data CPU = 0.816 seconds
group SR type 2
240 atoms in group SR
delete_atoms group SR
Deleted 240 atoms, new total = 544

replicate 1 1 7
Replication is creating a 1x1x7 = 7 times larger system...
  orthogonal box = (-100 -100 -2.3312511) to (100 100 286.22841)
  2 by 2 by 3 MPI processor grid
  3808 atoms
  replicate CPU = 1.072 seconds
write_data l.data
System init for write_data ...
WARNING: Communication cutoff is 0.0. No ghost atoms will be generated. Atoms may get lost. (src/comm_brick.cpp:210)

pair_style hybrid airebo 3.0 airebo 3.0  lj/cut 10
pair_coeff * * airebo 1 CH.airebo C NULL
Reading airebo potential file CH.airebo with DATE: 2011-10-25
pair_coeff * * airebo 2 CH.airebo NULL C
Reading airebo potential file CH.airebo with DATE: 2011-10-25
pair_coeff 1 2 lj/cut 0.00456 3.431

# 5------minimize -----------
min_style      sd
minimize       1.0e-4 1.0e-6 100 1000
Neighbor list info ...
  update: every = 1 steps, delay = 0 steps, check = yes
  max neighbors/atom: 2000, page size: 100000
  master list distance cutoff = 13.2
  ghost atom cutoff = 13.2
  binsize = 6.6, bins = 31 31 44
  5 neighbor lists, perpetual/occasional/extra = 5 0 0
  (1) pair airebo, perpetual, skip from (4)
      attributes: full, newton on, ghost
      pair build: skip/ghost
      stencil: none
      bin: none
  (2) pair airebo, perpetual, skip from (4)
      attributes: full, newton on, ghost
      pair build: skip/ghost
      stencil: none
      bin: none
  (3) pair lj/cut, perpetual, skip from (5)
      attributes: half, newton on, cut 13
      pair build: skip
      stencil: none
      bin: none
  (4) neighbor class addition, perpetual
      attributes: full, newton on, ghost
      pair build: full/bin/ghost
      stencil: full/ghost/bin/3d
      bin: standard
  (5) neighbor class addition, perpetual
      attributes: half, newton on, cut 13
      pair build: half/bin/atomonly/newton
      stencil: half/bin/3d
      bin: standard
Per MPI rank memory allocation (min/avg/max) = 9.304 | 9.304 | 9.305 Mbytes
   Step          Temp          E_pair         E_mol          TotEng         Press     
         0   0             -28120.998      0             -28120.998      30.842369    
         1   0             -28121.307      0             -28121.307      30.157447    
Loop time of 1.423 on 12 procs for 1 steps with 3808 atoms

36.8% CPU use with 12 MPI tasks x 1 OpenMP threads

Minimization stats:
  Stopping criterion = energy tolerance
  Energy initial, next-to-last, final = 
     -28120.9976372861  -28120.9976372861  -28121.3070079451
  Force two-norm initial, final = 9.2033036 1.9738401
  Force max component initial, final = 0.14888908 0.031904291
  Final line search alpha, max atom move = 0.67164094 0.021428228
  Iterations, force evaluations = 1 2

MPI task timing breakdown:
Section |  min time  |  avg time  |  max time  |%varavg| %total
---------------------------------------------------------------
Pair    | 0.011906   | 0.022777   | 0.061983   |   9.7 |  1.60
Neigh   | 0          | 0          | 0          |   0.0 |  0.00
Comm    | 0.3241     | 0.38723    | 0.48661    |   8.8 | 27.21
Output  | 0          | 0          | 0          |   0.0 |  0.00
Modify  | 0          | 0          | 0          |   0.0 |  0.00
Other   |            | 1.013      |            |       | 71.19

Nlocal:        317.333 ave         360 max         276 min
Histogram: 3 0 0 0 4 2 0 0 0 3
Nghost:        1298.67 ave        1340 max        1256 min
Histogram: 3 0 0 0 2 4 0 0 0 3
Neighs:              0 ave           0 max           0 min
Histogram: 12 0 0 0 0 0 0 0 0 0

Total # of neighbors = 0
Ave neighs/atom = 0
Neighbor list builds = 0
Dangerous builds = 0
#6----define computes------
variable nums equal count(all) #计算原子数目
variable toval equal 13.369*13.369*lz #计算系统总体积，单层石墨烯厚度为0.335nm
variable vol equal ${toval} #体系的初始体积
variable vol equal 51574.3153015904 
variable vatom equal v_vol/v_nums #单个原子体积
compute 1 all stress/atom NULL #计算体系中单原子应力
compute xalls all reduce sum c_1[1]
variable xstress equal (c_xalls)/(v_toval*10000)
compute yalls all reduce sum c_1[2]
variable ystress equal (c_yalls)/(v_toval*10000)
compute zalls all reduce sum c_1[3]
variable zstress equal (c_zalls)/(v_toval*10000)
#7---------relaxation-------------------------
timestep ${tstep}
timestep 0.001
#------------5 温度初始化------------------------------
velocity all create 300 4928459 dist gaussian units box
#------------------------------------------------------
dump   1 all atom 100 all-cy.lammpstrj
#fix    1 all npt temp 300 300  0.1 aniso 0 0  drag 1  #三个方向独立控压
fix  s all npt temp ${temperature} ${temperature} 0.1 y ${pressure} ${pressure} 10 x ${pressure} ${pressure} 10
fix  s all npt temp 300 ${temperature} 0.1 y ${pressure} ${pressure} 10 x ${pressure} ${pressure} 10
fix  s all npt temp 300 300 0.1 y ${pressure} ${pressure} 10 x ${pressure} ${pressure} 10
fix  s all npt temp 300 300 0.1 y 0 ${pressure} 10 x ${pressure} ${pressure} 10
fix  s all npt temp 300 300 0.1 y 0 0 10 x ${pressure} ${pressure} 10
fix  s all npt temp 300 300 0.1 y 0 0 10 x 0 ${pressure} 10
fix  s all npt temp 300 300 0.1 y 0 0 10 x 0 0 10
thermo                1000
thermo_modify       lost ignore
compute  2 all pe/atom
compute  pe all reduce sum c_2
variable PE equal "c_pe"
fix    pe all print 100 "${PE} " file PE.txt screen no
thermo  ${thermalstep}
thermo  100
#thermo_style  custom step pe ke etotal lx ly lz
run   ${relaxtime}
run   0
Per MPI rank memory allocation (min/avg/max) = 9.929 | 9.929 | 9.93 Mbytes
   Step          Temp          E_pair         E_mol          TotEng         Press          Volume    
         1   300           -28121.307      0             -27973.679      43.818754      11542387     
Loop time of 0.0993314 on 12 procs for 0 steps with 3808 atoms

32.5% CPU use with 12 MPI tasks x 1 OpenMP threads

MPI task timing breakdown:
Section |  min time  |  avg time  |  max time  |%varavg| %total
---------------------------------------------------------------
Pair    | 0          | 0          | 0          |   0.0 |  0.00
Neigh   | 0          | 0          | 0          |   0.0 |  0.00
Comm    | 0          | 0          | 0          |   0.0 |  0.00
Output  | 0          | 0          | 0          |   0.0 |  0.00
Modify  | 0          | 0          | 0          |   0.0 |  0.00
Other   |            | 0.09933    |            |       |100.00

Nlocal:        317.333 ave         320 max         316 min
Histogram: 8 0 0 0 0 0 0 0 0 4
Nghost:        1298.67 ave        1300 max        1296 min
Histogram: 4 0 0 0 0 0 0 0 0 8
Neighs:              0 ave           0 max           0 min
Histogram: 12 0 0 0 0 0 0 0 0 0

Total # of neighbors = 0
Ave neighs/atom = 0
Neighbor list builds = 0
Dangerous builds = 0
#8 -------tension-----------------------------
unfix s
undump  1
unfix  pe
reset_timestep 0
fix avestress all ave/atom 1 ${dumpstep} ${dumpstep} c_1[1] c_1[2] c_1[3] c_1[4] c_1[5] c_1[6]
fix avestress all ave/atom 1 1000 ${dumpstep} c_1[1] c_1[2] c_1[3] c_1[4] c_1[5] c_1[6]
fix avestress all ave/atom 1 1000 1000 c_1[1] c_1[2] c_1[3] c_1[4] c_1[5] c_1[6]

#-----calculation of strain and Cumulative compression--------
variable                tmp equal "lz"
variable                L0 equal ${tmp}
variable                L0 equal 288.5596645414
variable                strain equal "(lz - v_L0)/v_L0"
variable                Cumulativels equal "(lz - v_L0)/10"
fix Step all print 100 "${strain} ${Cumulativels} ${zstress}" file grapoten.txt screen no

dump 2 all custom ${dumpstep} tension.xyz type x y z f_avestress[1] f_avestress[2] f_avestress[3] f_avestress[4] f_avestress[5] f_avestress[6]
dump 2 all custom 1000 tension.xyz type x y z f_avestress[1] f_avestress[2] f_avestress[3] f_avestress[4] f_avestress[5] f_avestress[6]

fix  1 all npt temp ${temperature} ${temperature} 0.1 y ${pressure} ${pressure} 10 x ${pressure} ${pressure} 10
fix  1 all npt temp 300 ${temperature} 0.1 y ${pressure} ${pressure} 10 x ${pressure} ${pressure} 10
fix  1 all npt temp 300 300 0.1 y ${pressure} ${pressure} 10 x ${pressure} ${pressure} 10
fix  1 all npt temp 300 300 0.1 y 0 ${pressure} 10 x ${pressure} ${pressure} 10
fix  1 all npt temp 300 300 0.1 y 0 0 10 x ${pressure} ${pressure} 10
fix  1 all npt temp 300 300 0.1 y 0 0 10 x 0 ${pressure} 10
fix  1 all npt temp 300 300 0.1 y 0 0 10 x 0 0 10

thermo_style custom step pe ke etotal lx ly lz
WARNING: New thermo_style command, previous thermo_modify settings will be lost (src/output.cpp:903)
fix   2 all deform 1 z erate ${deformrate} remap x units box
fix   2 all deform 1 z erate 0.005 remap x units box
fix   3 all ave/time 2 500 1000 v_xstress v_ystress v_zstress file pressure.out
run   ${totaltime}
run   100000
WARNING: Dump 2 includes no atom IDs and is not sorted by ID. This may complicate post-processing tasks or visualization (src/dump.cpp:221)
Per MPI rank memory allocation (min/avg/max) = 11.43 | 11.43 | 11.43 Mbytes
   Step         PotEng         KinEng         TotEng           Lx             Ly             Lz      
         0  -28121.307      147.62801     -27973.679      200            200            288.55966    
       100  -28037.95       76.770476     -27961.179      200.00342      200.00277      288.70394    
       200  -28033.609      90.457179     -27943.152      200.00016      199.99926      288.84822    
       300  -28020.038      98.43656      -27921.602      199.99126      199.99108      288.9925     
       400  -28010.932      112.785       -27898.147      199.99577      199.99702      289.13678    
       500  -27998.736      124.9123      -27873.824      199.98569      199.98935      289.28106    
       600  -27988.082      137.61409     -27850.468      199.98042      199.98764      289.42534    
       700  -27974.367      143.77324     -27830.594      199.98141      199.99295      289.56962    
       800  -27969.09       151.86058     -27817.229      199.96673      199.98272      289.7139     
       900  -27967.944      153.03106     -27814.913      199.96607      199.98756      289.85818    
      1000  -27971.854      148.34144     -27823.513      199.95988      199.98578      290.00246    
      1100  -27975.316      143.4074      -27831.909      199.94802      199.9779       290.14674    
      1200  -27974.948      141.34482     -27833.603      199.94921      199.98229      290.29102    
      1300  -27971.552      143.97201     -27827.58       199.93908      199.97322      290.4353     
      1400  -27969.678      151.05389     -27818.624      199.9346       199.96931      290.57958    
      1500  -27966.434      150.7445      -27815.689      199.93378      199.96743      290.72386    
      1600  -27969.56       150.2235      -27819.336      199.92398      199.95593      290.86814    
      1700  -27971.073      145.85751     -27825.215      199.92345      199.95464      291.01242    
      1800  -27971.222      143.64156     -27827.581      199.91636      199.94707      291.1567     
      1900  -27969.519      146.09276     -27823.427      199.90942      199.93993      291.30098    
      2000  -27965.532      149.29881     -27816.234      199.90597      199.93754      291.44526    
      2100  -27962.387      150.90823     -27811.479      199.89599      199.92965      291.58954    
      2200  -27962.804      149.88456     -27812.919      199.88998      199.92637      291.73382    
      2300  -27965.97       147.87247     -27818.097      199.88143      199.92199      291.8781     
      2400  -27964.969      143.85103     -27821.118      199.87122      199.91633      292.02238    
      2500  -27963.619      145.30087     -27818.318      199.86419      199.91351      292.16666    
      2600  -27958.386      146.90026     -27811.486      199.85353      199.90727      292.31094    
      2700  -27958.443      152.66127     -27805.781      199.84533      199.90273      292.45522    
      2800  -27956.165      151.30839     -27804.857      199.8363       199.89601      292.5995     
      2900  -27955.898      147.56077     -27808.337      199.82779      199.88946      292.74378    
      3000  -27955.308      144.04257     -27811.265      199.81965      199.88257      292.88806    
      3100  -27954.518      144.21861     -27810.299      199.81023      199.87341      293.03234    
      3200  -27952.239      146.79595     -27805.443      199.80357      199.86752      293.17662    
      3300  -27950.944      151.21915     -27799.725      199.79302      199.85671      293.3209     
      3400  -27947.033      150.25479     -27796.778      199.78481      199.8489       293.46518    
      3500  -27944.226      146.866       -27797.36       199.77604      199.8416       293.60946    
      3600  -27947.737      148.0619      -27799.675      199.7631       199.83043      293.75374    
      3700  -27946.642      145.99729     -27800.644      199.75519      199.82473      293.89802    
      3800  -27945.038      147.45758     -27797.581      199.74193      199.81521      294.0423     
      3900  -27939.589      147.86648     -27791.722      199.72938      199.80653      294.18658    
      4000  -27938.088      151.18438     -27786.903      199.71942      199.8004       294.33086    
      4100  -27935.214      148.97756     -27786.236      199.70334      199.7892       294.47514    
      4200  -27935.654      146.95291     -27788.701      199.69321      199.78289      294.61942    
      4300  -27932.456      142.52451     -27789.932      199.67929      199.77269      294.7637     
      4400  -27932.798      146.01576     -27786.782      199.66551      199.76209      294.90798    
      4500  -27929.851      149.13864     -27780.713      199.65515      199.75418      295.05226    
      4600  -27924.961      149.18426     -27775.777      199.64012      199.74077      295.19654    
      4700  -27922.871      148.53637     -27774.335      199.62947      199.73146      295.34082    
      4800  -27922.798      146.85813     -27775.94       199.61662      199.71875      295.4851     
      4900  -27924.67       147.88077     -27776.789      199.60222      199.70521      295.62938    
      5000  -27917.185      143.17065     -27774.015      199.59136      199.69546      295.77366    
      5100  -27914.395      145.83137     -27768.564      199.57583      199.68089      295.91794    
      5200  -27914.351      151.24593     -27763.105      199.56263      199.66887      296.06222    
      5300  -27911.383      150.40022     -27760.983      199.54841      199.65747      296.2065     
      5400  -27910.852      148.89704     -27761.955      199.53107      199.64383      296.35078    
      5500  -27907.552      144.95945     -27762.593      199.51616      199.63271      296.49506    
      5600  -27906.231      146.16534     -27760.066      199.49856      199.62087      296.63934    
      5700  -27902.153      147.74465     -27754.408      199.48077      199.60836      296.78361    
      5800  -27896.152      147.16688     -27748.985      199.46389      199.59622      296.92789    
      5900  -27895.263      148.90763     -27746.355      199.44628      199.58354      297.07217    
      6000  -27895.378      148.17489     -27747.203      199.42847      199.56926      297.21645    
      6100  -27895.439      148.09095     -27747.348      199.4117       199.55368      297.36073    
      6200  -27889.836      145.71937     -27744.116      199.3959       199.53907      297.50501    
      6300  -27887.522      149.38957     -27738.133      199.37788      199.5219       297.64929    
      6400  -27884.427      151.60257     -27732.824      199.36198      199.50522      297.79357    
      6500  -27879.518      148.99994     -27730.518      199.34544      199.4885       297.93785    
      6600  -27878.768      147.8867      -27730.881      199.32585      199.47031      298.08213    
      6700  -27873.601      143.71248     -27729.889      199.3079       199.45364      298.22641    
      6800  -27874.142      148.42897     -27725.713      199.28785      199.43603      298.37069    
      6900  -27869.529      151.73141     -27717.798      199.2667       199.41932      298.51497    
      7000  -27866.023      152.42425     -27713.599      199.2453       199.40239      298.65925    
      7100  -27860.785      147.95726     -27712.828      199.22242      199.38466      298.80353    
      7200  -27859.825      147.92681     -27711.898      199.19964      199.36836      298.94781    
      7300  -27855.712      145.74016     -27709.972      199.1747       199.34963      299.09209    
      7400  -27854.12       147.17749     -27706.943      199.15204      199.33191      299.23637    
      7500  -27850.563      148.92        -27701.643      199.12741      199.3125       299.38065    
      7600  -27843.909      149.53559     -27694.373      199.10231      199.2915       299.52493    
      7700  -27841.553      149.76942     -27691.783      199.07985      199.27199      299.66921    
      7800  -27840.624      147.69905     -27692.925      199.05377      199.24873      299.81349    
      7900  -27838.391      147.46577     -27690.925      199.03012      199.22681      299.95777    
      8000  -27833.762      146.52495     -27687.237      199.00542      199.20373      300.10205    
      8100  -27830.886      148.53006     -27682.356      198.97858      199.17852      300.24633    
      8200  -27822.819      148.44573     -27674.374      198.95421      199.15611      300.39061    
      8300  -27820.02       150.28543     -27669.734      198.92604      199.13011      300.53489    
      8400  -27817.984      147.65009     -27670.334      198.89837      199.10534      300.67917    
      8500  -27816.709      148.27068     -27668.438      198.87045      199.08108      300.82345    
      8600  -27812.314      146.72127     -27665.593      198.83896      199.05437      300.96773    
      8700  -27810.62       147.89515     -27662.724      198.80952      199.0301       301.11201    
      8800  -27806.001      147.06786     -27658.933      198.77709      199.00371      301.25629    
      8900  -27801.091      147.76018     -27653.331      198.74464      198.97743      301.40057    
      9000  -27794.323      146.89655     -27647.426      198.71278      198.95149      301.54485    
      9100  -27793.737      150.15821     -27643.579      198.67805      198.92271      301.68913    
      9200  -27791.47       147.54904     -27643.921      198.64566      198.89557      301.83341    
      9300  -27789.846      147.36383     -27642.482      198.61102      198.86559      301.97769    
      9400  -27782.749      145.60479     -27637.145      198.57691      198.83532      302.12197    
      9500  -27779.818      149.53438     -27630.283      198.54313      198.80518      302.26625    
      9600  -27774.115      148.91248     -27625.203      198.50725      198.7722       302.41053    
      9700  -27768.694      147.25407     -27621.44       198.47235      198.74003      302.55481    
      9800  -27765.296      147.07279     -27618.223      198.43583      198.70623      302.69909    
      9900  -27763.629      148.51084     -27615.118      198.39883      198.67269      302.84337    
     10000  -27760.49       146.80562     -27613.684      198.36048      198.63834      302.98765    
     10100  -27758.143      145.76084     -27612.382      198.3204       198.60349      303.13193    
     10200  -27751.476      146.07967     -27605.396      198.28036      198.56916      303.27621    
     10300  -27743.614      146.94701     -27596.667      198.23849      198.53258      303.42049    
     10400  -27741.073      149.50038     -27591.573      198.19633      198.49662      303.56477    
     10500  -27736.577      148.16036     -27588.417      198.15368      198.45988      303.70905    
     10600  -27733.695      146.09316     -27587.602      198.10943      198.4208       303.85333    
     10700  -27731.456      146.23692     -27585.219      198.06601      198.38254      303.99761    
     10800  -27726.553      149.47714     -27577.076      198.02036      198.34251      304.14189    
     10900  -27716.887      148.44169     -27568.446      197.97463      198.30205      304.28617    
     11000  -27712.372      148.10763     -27564.264      197.92851      198.26099      304.43045    
     11100  -27709.651      146.98076     -27562.67       197.88014      198.21771      304.57473    
     11200  -27706.127      145.44485     -27560.683      197.83325      198.17539      304.71901    
     11300  -27702.544      146.90188     -27555.642      197.784        198.13055      304.86329    
     11400  -27694.156      149.30106     -27544.855      197.73385      198.08546      305.00757    
     11500  -27690.392      150.98025     -27539.412      197.68431      198.04056      305.15185    
     11600  -27687.356      149.66949     -27537.686      197.63185      197.99282      305.29613    
     11700  -27682.713      147.01134     -27535.701      197.57988      197.94668      305.4404     
     11800  -27678.664      147.12894     -27531.535      197.52598      197.89901      305.58468    
     11900  -27673.535      148.13141     -27525.403      197.47098      197.85111      305.72896    
     12000  -27664.776      148.39889     -27516.377      197.41613      197.80368      305.87324    
     12100  -27657.129      150.18199     -27506.947      197.35815      197.75386      306.01752    
     12200  -27656.421      151.09475     -27505.326      197.30172      197.70561      306.1618     
     12300  -27653.568      149.4793      -27504.089      197.24316      197.65503      306.30608    
     12400  -27647.171      145.65395     -27501.517      197.18477      197.60378      306.45036    
     12500  -27643.825      146.80901     -27497.016      197.12634      197.55277      306.59464    
     12600  -27637.79       148.33938     -27489.451      197.06625      197.49906      306.73892    
     12700  -27630.434      150.79716     -27479.637      197.00751      197.44626      306.8832     
     12800  -27624.798      149.69339     -27475.104      196.94723      197.39146      307.02748    
     12900  -27620.631      147.77642     -27472.855      196.88644      197.33636      307.17176    
     13000  -27615.874      146.72117     -27469.153      196.82577      197.28072      307.31604    
     13100  -27612.011      147.4602      -27464.551      196.76305      197.22415      307.46032    
     13200  -27606.854      147.4872      -27459.367      196.7004       197.16815      307.6046     
     13300  -27600.915      148.82945     -27452.086      196.63719      197.11129      307.74888    
     13400  -27593.84       149.6867      -27444.153      196.57317      197.05392      307.89316    
     13500  -27590.237      150.47048     -27439.767      196.50855      196.99703      308.03744    
     13600  -27586.584      147.81797     -27438.766      196.44306      196.93925      308.18172    
     13700  -27582.67       148.28496     -27434.386      196.37779      196.88112      308.326      
     13800  -27575.547      147.90043     -27427.647      196.31175      196.82321      308.47028    
     13900  -27567.596      147.40598     -27420.19       196.2447       196.76429      308.61456    
     14000  -27563.639      149.3828      -27414.256      196.179        196.70524      308.75884    
     14100  -27555.835      146.92893     -27408.906      196.11191      196.64531      308.90312    
     14200  -27549.596      146.52975     -27403.066      196.04443      196.58547      309.0474     
     14300  -27546.839      150.08862     -27396.75       195.9785       196.5255       309.19168    
     14400  -27539.228      148.4053      -27390.823      195.91062      196.46411      309.33596    
     14500  -27534.231      147.88253     -27386.348      195.84353      196.40448      309.48024    
     14600  -27531.074      147.63135     -27383.443      195.77582      196.34332      309.62452    
     14700  -27523.873      144.7163      -27379.157      195.70889      196.28208      309.7688     
     14800  -27519.06       148.35894     -27370.701      195.64146      196.22194      309.91308    
     14900  -27508.953      148.59017     -27360.363      195.57331      196.16123      310.05736    
     15000  -27504.943      150.20187     -27354.741      195.50707      196.10113      310.20164    
     15100  -27498.552      146.80983     -27351.742      195.43954      196.04075      310.34592    
     15200  -27494.975      146.66641     -27348.309      195.37191      195.9812       310.4902     
     15300  -27487.765      145.21026     -27342.554      195.30567      195.92249      310.63448    
     15400  -27481.409      146.24623     -27335.163      195.23825      195.8622       310.77876    
     15500  -27474.516      147.06625     -27327.45       195.172        195.8045       310.92304    
     15600  -27468.496      148.4468      -27320.049      195.10577      195.74605      311.06732    
     15700  -27461.759      147.89389     -27313.865      195.03988      195.68681      311.2116     
     15800  -27458.317      147.63611     -27310.681      194.97608      195.62954      311.35588    
     15900  -27451.328      144.6178      -27306.711      194.91058      195.57071      311.50016    
     16000  -27447.36       148.17326     -27299.186      194.84788      195.51331      311.64444    
     16100  -27436.622      147.89769     -27288.724      194.78537      195.45593      311.78872    
     16200  -27431.394      149.93325     -27281.461      194.72228      195.39828      311.933      
     16300  -27424.845      148.22669     -27276.618      194.66149      195.34262      312.07728    
     16400  -27421.502      149.73324     -27271.768      194.59974      195.28555      312.22156    
     16500  -27415.08       149.23405     -27265.846      194.53942      195.231        312.36584    
     16600  -27408.691      148.97583     -27259.715      194.47862      195.17641      312.51012    
     16700  -27397.867      145.53924     -27252.328      194.41886      195.12229      312.6544     
     16800  -27390.25       149.53888     -27240.711      194.35974      195.06903      312.79868    
     16900  -27382.476      148.48609     -27233.99       194.30058      195.01624      312.94296    
     17000  -27380.613      148.93684     -27231.677      194.24282      194.96416      313.08724    
     17100  -27377.075      149.56789     -27227.508      194.1848       194.91177      313.23152    
     17200  -27366.986      145.87517     -27221.111      194.12838      194.86122      313.3758     
     17300  -27361.779      148.36689     -27213.412      194.07115      194.81025      313.52008    
     17400  -27350.034      147.26608     -27202.768      194.01622      194.76122      313.66436    
     17500  -27343.169      149.10295     -27194.066      193.96144      194.71172      313.80864    
     17600  -27338.896      147.50192     -27191.394      193.90693      194.66311      313.95292    
     17700  -27336.717      149.63881     -27187.078      193.85448      194.61591      314.09719    
     17800  -27329.563      148.45595     -27181.107      193.80123      194.56772      314.24147    
     17900  -27317.915      143.4039      -27174.511      193.75028      194.52201      314.38575    
     18000  -27312.879      146.43634     -27166.443      193.69894      194.47606      314.53003    
     18100  -27306.048      149.90009     -27156.148      193.64868      194.43029      314.67431    
     18200  -27296.849      148.80034     -27148.048      193.6003       194.38667      314.81859    
     18300  -27292.955      147.244       -27145.711      193.55049      194.34175      314.96287    
     18400  -27287.879      146.13093     -27141.748      193.50371      194.2992       315.10715    
     18500  -27279.606      145.62216     -27133.984      193.45645      194.25597      315.25143    
     18600  -27274.426      150.00873     -27124.417      193.40945      194.2136       315.39571    
     18700  -27264.962      149.94529     -27115.017      193.36527      194.1736       315.53999    
     18800  -27257.849      149.73093     -27108.118      193.31914      194.13132      315.68427    
     18900  -27254.193      147.46257     -27106.73       193.27621      194.09218      315.82855    
     19000  -27245.417      144.09094     -27101.326      193.23271      194.05244      315.97283    
     19100  -27239.777      148.47846     -27091.299      193.18972      194.01263      316.11711    
     19200  -27227.942      146.95573     -27080.986      193.14939      193.97551      316.26139    
     19300  -27221.344      147.91917     -27073.424      193.10656      193.93652      316.40567    
     19400  -27218.02       150.44454     -27067.575      193.06642      193.90008      316.54995    
     19500  -27208.079      144.26555     -27063.814      193.02621      193.86333      316.69423    
     19600  -27203.45       142.59699     -27060.853      192.98544      193.82672      316.83851    
     19700  -27194.706      143.8615      -27050.845      192.94724      193.79227      316.98279    
     19800  -27187.747      147.32108     -27040.426      192.90728      193.75561      317.12707    
     19900  -27181.659      150.26784     -27031.392      192.86993      193.72197      317.27135    
     20000  -27172.541      150.15128     -27022.39       192.83143      193.68763      317.41563    
     20100  -27163.634      149.56739     -27014.067      192.7939       193.65344      317.55991    
     20200  -27158.421      149.53369     -27008.888      192.75814      193.62131      317.70419    
     20300  -27153.88       148.36004     -27005.52       192.72037      193.58755      317.84847    
     20400  -27144.235      146.00899     -26998.226      192.68545      193.5557       317.99275    
     20500  -27133.843      146.72765     -26987.115      192.65063      193.5236       318.13703    
     20600  -27125.649      148.32419     -26977.325      192.61541      193.4914       318.28131    
     20700  -27120.348      149.86793     -26970.48       192.58204      193.46087      318.42559    
     20800  -27113.507      148.87932     -26964.628      192.54807      193.4291       318.56987    
     20900  -27104.507      146.03417     -26958.473      192.51502      193.39812      318.71415    
     21000  -27098.578      146.38178     -26952.197      192.48299      193.36849      318.85843    
     21100  -27094.467      149.42504     -26945.041      192.44967      193.33772      319.00271    
     21200  -27081.295      146.49488     -26934.8        192.4185       193.30854      319.14699    
     21300  -27070.417      146.38443     -26924.032      192.38713      193.27969      319.29127    
     21400  -27065.299      149.15258     -26916.147      192.35476      193.25045      319.43555    
     21500  -27061.908      149.57311     -26912.335      192.32485      193.22383      319.57983    
     21600  -27049.492      141.95233     -26907.539      192.29234      193.19459      319.72411    
     21700  -27043.665      145.66492     -26898          192.26327      193.16836      319.86839    
     21800  -27033.848      146.20782     -26887.64       192.23236      193.14095      320.01267    
     21900  -27026.577      147.81337     -26878.764      192.20215      193.1136       320.15695    
     22000  -27020.698      150.13965     -26870.559      192.174        193.08789      320.30123    
     22100  -27010.114      147.00462     -26863.109      192.14247      193.05936      320.44551    
     22200  -27004.323      147.18566     -26857.137      192.11506      193.03466      320.58979    
     22300  -26997.971      148.10986     -26849.861      192.08514      193.0065       320.73407    
     22400  -26985.519      145.37645     -26840.143      192.05702      192.98026      320.87835    
     22500  -26978.579      149.70306     -26828.876      192.02941      192.95422      321.02263    
     22600  -26967.697      148.16185     -26819.536      192.0007       192.92623      321.16691    
     22700  -26963.15       147.59869     -26815.551      191.97495      192.90118      321.31119    
     22800  -26958.942      147.25126     -26811.691      191.94595      192.873        321.45547    
     22900  -26949.129      146.75919     -26802.37       191.91977      192.84836      321.59975    
     23000  -26936.05       145.28197     -26790.768      191.89185      192.82191      321.74403    
     23100  -26928.588      147.9103      -26780.678      191.86431      192.79664      321.88831    
     23200  -26922.005      148.55665     -26773.448      191.83722      192.77257      322.03259    
     23300  -26915.373      148.00128     -26767.372      191.80817      192.7471       322.17687    
     23400  -26910.704      146.81236     -26763.891      191.78167      192.72406      322.32115    
     23500  -26905.109      146.17091     -26758.938      191.75272      192.69877      322.46543    
     23600  -26889.546      142.39718     -26747.149      191.72578      192.67576      322.6097     
     23700  -26881.016      145.13231     -26735.883      191.69858      192.65167      322.75398    
     23800  -26873.195      148.13008     -26725.065      191.67102      192.62707      322.89826    
     23900  -26864.78       149.73306     -26715.046      191.64535      192.60411      323.04254    
     24000  -26856.448      149.07067     -26707.377      191.61763      192.57843      323.18682    
     24100  -26850.426      146.42696     -26704          191.59316      192.55539      323.3311     
     24200  -26844.34       147.27939     -26697.06       191.56658      192.52979      323.47538    
     24300  -26832.181      146.73611     -26685.444      191.54206      192.50548      323.61966    
     24400  -26823.376      148.72003     -26674.656      191.51729      192.48092      323.76394    
     24500  -26811.336      145.26745     -26666.069      191.49132      192.45518      323.90822    
     24600  -26804.789      146.67244     -26658.116      191.46741      192.43153      324.0525     
     24700  -26796.952      147.0721      -26649.88       191.44037      192.40533      324.19678    
     24800  -26787.79       147.62587     -26640.164      191.41591      192.38235      324.34106    
     24900  -26779.775      150.45853     -26629.316      191.38934      192.35703      324.48534    
     25000  -26771.768      150.77133     -26620.997      191.36361      192.33302      324.62962    
     25100  -26764.628      148.01493     -26616.613      191.33761      192.30955      324.7739     
     25200  -26757.179      146.97502     -26610.204      191.30959      192.28474      324.91818    
     25300  -26746.241      145.91364     -26600.328      191.28478      192.26274      325.06246    
     25400  -26737.165      147.80224     -26589.363      191.25663      192.23761      325.20674    
     25500  -26729.688      149.70201     -26579.986      191.23044      192.21503      325.35102    
     25600  -26718.714      147.39148     -26571.323      191.20348      192.19134      325.4953     
     25700  -26711.236      148.63566     -26562.601      191.17691      192.16668      325.63958    
     25800  -26704.06       149.99475     -26554.065      191.15134      192.14298      325.78386    
     25900  -26695.342      149.09862     -26546.243      191.1243       192.11815      325.92814    
     26000  -26685.135      146.79963     -26538.335      191.09898      192.09394      326.07242    
     26100  -26675.384      146.23188     -26529.153      191.07299      192.06831      326.2167     
     26200  -26667.577      149.89851     -26517.678      191.04769      192.04364      326.36098    
     26300  -26656.067      149.38932     -26506.677      191.02163      192.01867      326.50526    
     26400  -26647.996      148.71452     -26499.282      190.99616      191.99397      326.64954    
     26500  -26645.222      149.53128     -26495.691      190.97045      191.96873      326.79382    
     26600  -26634.164      146.71303     -26487.451      190.94458      191.94428      326.9381     
     26700  -26622.068      146.3728      -26475.696      190.91827      191.92005      327.08238    
     26800  -26609.922      145.24598     -26464.676      190.89217      191.89494      327.22666    
     26900  -26604.609      149.28272     -26455.326      190.86689      191.87044      327.37094    
     27000  -26595.625      148.64034     -26446.985      190.83959      191.84484      327.51522    
     27100  -26587.166      148.04145     -26439.125      190.81379      191.82075      327.6595     
     27200  -26578.843      145.61473     -26433.228      190.78681      191.79474      327.80378    
     27300  -26569.941      144.31325     -26425.627      190.76025      191.76963      327.94806    
     27400  -26559.51       147.0293      -26412.481      190.73337      191.74479      328.09234    
     27500  -26549.501      148.70923     -26400.791      190.70613      191.71934      328.23662    
     27600  -26539.869      148.01565     -26391.853      190.67933      191.69374      328.3809     
     27700  -26532.665      148.52853     -26384.136      190.65213      191.66844      328.52518    
     27800  -26525.527      148.33723     -26377.19       190.62431      191.64271      328.66946    
     27900  -26517.433      146.89347     -26370.54       190.59715      191.61774      328.81374    
     28000  -26505.546      145.73652     -26359.81       190.56929      191.59139      328.95802    
     28100  -26495.31       149.40125     -26345.909      190.54153      191.56589      329.1023     
     28200  -26484.688      148.72531     -26335.963      190.51395      191.54067      329.24658    
     28300  -26475.469      147.79838     -26327.671      190.48465      191.51367      329.39086    
     28400  -26467.945      146.40672     -26321.538      190.45777      191.48885      329.53514    
     28500  -26463.785      148.09094     -26315.694      190.42871      191.46216      329.67942    
     28600  -26449.421      145.1876      -26304.233      190.40052      191.43596      329.8237     
     28700  -26437.867      147.74659     -26290.121      190.37329      191.41016      329.96798    
     28800  -26428.215      147.30846     -26280.906      190.3447       191.38242      330.11226    
     28900  -26420.161      147.07503     -26273.086      190.3182       191.35643      330.25654    
     29000  -26413.735      148.35712     -26265.378      190.28948      191.32818      330.40082    
     29100  -26405.713      149.17191     -26256.541      190.26244      191.30178      330.5451     
     29200  -26391.121      147.48565     -26243.636      190.23486      191.27462      330.68938    
     29300  -26380.214      148.9336      -26231.28       190.20628      191.24666      330.83366    
     29400  -26374.585      152.26926     -26222.316      190.17885      191.22058      330.97794    
     29500  -26362.58       145.87192     -26216.708      190.14911      191.19218      331.12222    
     29600  -26356.169      145.56623     -26210.603      190.121        191.16544      331.26649    
     29700  -26345.476      145.42241     -26200.054      190.0916       191.13771      331.41077    
     29800  -26335.542      147.37382     -26188.168      190.06201      191.11013      331.55505    
     29900  -26324.365      148.02121     -26176.344      190.03284      191.08301      331.69933    
     30000  -26311.985      146.06034     -26165.925      190.00258      191.05463      331.84361    
     30100  -26305.632      147.06445     -26158.568      189.97351      191.02752      331.98789    
     30200  -26298.726      144.03416     -26154.692      189.94251      190.99872      332.13217    
     30300  -26287.4        143.54028     -26143.859      189.91341      190.9715       332.27645    
     30400  -26277.673      146.75091     -26130.922      189.88306      190.9422       332.42073    
     30500  -26267.736      148.12025     -26119.615      189.85338      190.91354      332.56501    
     30600  -26258.104      148.75421     -26109.35       189.82367      190.88507      332.70929    
     30700  -26246.727      147.98553     -26098.742      189.79218      190.85479      332.85357    
     30800  -26234.451      147.64357     -26086.808      189.76329      190.82701      332.99785    
     30900  -26225.083      148.04988     -26077.033      189.7317       190.79616      333.14213    
     31000  -26218.953      147.23772     -26071.715      189.70188      190.76801      333.28641    
     31100  -26210.729      146.39607     -26064.333      189.67088      190.73838      333.43069    
     31200  -26200.288      146.43632     -26053.851      189.63974      190.70869      333.57497    
     31300  -26188.838      147.66412     -26041.174      189.60981      190.68057      333.71925    
     31400  -26177.628      150.32965     -26027.298      189.57709      190.64974      333.86353    
     31500  -26164.441      151.57164     -26012.869      189.54768      190.62242      334.00781    
     31600  -26159.438      153.2156      -26006.222      189.51478      190.59158      334.15209    
     31700  -26144.801      145.08807     -25999.712      189.48405      190.56263      334.29637    
     31800  -26141.727      149.2815      -25992.445      189.45241      190.53298      334.44065    
     31900  -26128.833      143.75594     -25985.077      189.42001      190.50214      334.58493    
     32000  -26118.809      143.84193     -25974.967      189.39011      190.47317      334.72921    
     32100  -26110.265      148.78421     -25961.481      189.3563       190.44054      334.87349    
     32200  -26100.851      150.76348     -25950.087      189.32681      190.41227      335.01777    
     32300  -26090.132      148.74037     -25941.392      189.29237      190.37928      335.16205    
     32400  -26083.131      146.31403     -25936.817      189.26173      190.34963      335.30633    
     32500  -26073.767      144.48118     -25929.286      189.22926      190.31815      335.45061    
     32600  -26063.433      146.95181     -25916.481      189.19574      190.28569      335.59489    
     32700  -26051.247      147.72582     -25903.521      189.16528      190.2571       335.73917    
     32800  -26039.543      148.15076     -25891.393      189.12909      190.22282      335.88345    
     32900  -26026.947      146.30896     -25880.638      189.09921      190.19435      336.02773    
     33000  -26023.216      150.68476     -25872.531      189.06377      190.16051      336.17201    
     33100  -26012.937      145.24072     -25867.696      189.03094      190.12941      336.31629    
     33200  -26001.865      145.05549     -25856.81       188.99843      190.09845      336.46057    
     33300  -25990.461      147.31882     -25843.142      188.96318      190.06459      336.60485    
     33400  -25979.316      147.57017     -25831.746      188.93228      190.03459      336.74913    
     33500  -25972.473      150.58535     -25821.887      188.8962       190.00015      336.89341    
     33600  -25962.955      149.46003     -25813.494      188.86468      189.9703       337.03769    
     33700  -25951.172      143.49234     -25807.679      188.82952      189.9365       337.18197    
     33800  -25942.79       144.07101     -25798.719      188.79701      189.9048       337.32625    
     33900  -25929.189      145.45027     -25783.738      188.76343      189.87262      337.47053    
     34000  -25918.271      146.77778     -25771.493      188.729        189.83953      337.61481    
     34100  -25908.901      148.52445     -25760.377      188.69634      189.80813      337.75909    
     34200  -25898.899      149.50984     -25749.39       188.66096      189.77365      337.90337    
     34300  -25885.903      146.99442     -25738.909      188.62846      189.74239      338.04765    
     34400  -25878.191      148.17859     -25730.012      188.59229      189.708        338.19193    
     34500  -25866.095      143.75321     -25722.342      188.55865      189.67623      338.33621    
     34600  -25860.656      147.08071     -25713.575      188.52399      189.64325      338.48049    
     34700  -25846.589      145.49358     -25701.095      188.48825      189.60923      338.62477    
     34800  -25838.278      151.66513     -25686.613      188.45483      189.57805      338.76905    
     34900  -25824.41       147.64573     -25676.764      188.41746      189.54311      338.91333    
     35000  -25814.264      145.78581     -25668.478      188.38402      189.51141      339.05761    
     35100  -25807.681      145.74933     -25661.931      188.34748      189.47626      339.20189    
     35200  -25797.12       141.82118     -25655.299      188.3129       189.44306      339.34617    
     35300  -25784.922      143.45683     -25641.465      188.27747      189.40933      339.49045    
     35400  -25777.454      149.10492     -25628.349      188.24136      189.37477      339.63473    
     35500  -25763.513      146.73677     -25616.777      188.20717      189.34166      339.779      
     35600  -25752.489      147.64805     -25604.841      188.1702       189.30593      339.92328    
     35700  -25740.874      146.785       -25594.089      188.13592      189.27311      340.06756    
     35800  -25735.097      149.30583     -25585.791      188.09899      189.23764      340.21184    
     35900  -25724.59       145.15117     -25579.438      188.06432      189.20407      340.35612    
     36000  -25714.671      145.19596     -25569.475      188.02867      189.16922      340.5004     
     36100  -25701.897      147.52529     -25554.372      187.99283      189.13443      340.64468    
     36200  -25692.544      149.84673     -25542.698      187.95862      189.10127      340.78896    
     36300  -25680.971      148.25329     -25532.718      187.92148      189.06504      340.93324    
     36400  -25668.805      145.45866     -25523.346      187.88796      189.03228      341.07752    
     36500  -25663.476      149.2253      -25514.251      187.85073      188.99597      341.2218     
     36600  -25651.49       146.86217     -25504.628      187.81605      188.96268      341.36608    
     36700  -25639.728      148.30391     -25491.424      187.77958      188.92759      341.51036    
     36800  -25626.255      148.81076     -25477.444      187.7434       188.89249      341.65464    
     36900  -25615.423      148.64728     -25466.776      187.70812      188.85846      341.79892    
     37000  -25607.377      147.77515     -25459.602      187.67086      188.82253      341.9432     
     37100  -25598.132      144.88357     -25453.249      187.63583      188.7889       342.08748    
     37200  -25586.175      144.53072     -25441.644      187.59854      188.75297      342.23176    
     37300  -25575.389      147.10531     -25428.283      187.56323      188.71902      342.37604    
     37400  -25562.361      146.94154     -25415.419      187.52605      188.68324      342.52032    
     37500  -25552.635      148.45954     -25404.175      187.48978      188.64866      342.6646     
     37600  -25542.922      146.41768     -25396.504      187.45354      188.61345      342.80888    
     37700  -25535.494      144.79734     -25390.697      187.41659      188.57711      342.95316    
     37800  -25525.187      146.73948     -25378.448      187.38131      188.54257      343.09744    
     37900  -25511.843      147.46075     -25364.382      187.34372      188.50584      343.24172    
     38000  -25498.644      145.97331     -25352.67       187.30869      188.47155      343.386      
     38100  -25492.462      150.26446     -25342.198      187.27124      188.43483      343.53028    
     38200  -25481.302      148.20553     -25333.096      187.23581      188.40051      343.67456    
     38300  -25471.186      144.69154     -25326.494      187.19918      188.36515      343.81884    
     38400  -25460.584      144.10551     -25316.478      187.16267      188.33011      343.96312    
     38500  -25448.336      147.35021     -25300.986      187.12667      188.29561      344.1074     
     38600  -25435.639      147.33471     -25288.304      187.08952      188.26057      344.25168    
     38700  -25423.993      146.66771     -25277.325      187.05381      188.22704      344.39596    
     38800  -25415.889      148.80203     -25267.087      187.01612      188.19134      344.54024    
     38900  -25404.103      145.96722     -25258.136      186.98097      188.15796      344.68452    
     39000  -25395.001      145.53406     -25249.466      186.94344      188.12212      344.8288     
     39100  -25384.84       147.44441     -25237.395      186.90795      188.08796      344.97308    
     39200  -25372.009      149.6106      -25222.398      186.87132      188.05276      345.11736    
     39300  -25362.847      151.75137     -25211.096      186.8355       188.01773      345.26164    
     39400  -25351.339      149.16614     -25202.173      186.79959      187.98239      345.40592    
     39500  -25341.46       146.76755     -25194.693      186.76352      187.94711      345.5502     
     39600  -25333.545      144.0107      -25189.534      186.72809      187.91223      345.69448    
     39700  -25322.098      144.03549     -25178.063      186.6913       187.87601      345.83876    
     39800  -25306.471      142.51516     -25163.956      186.6573       187.84191      345.98304    
     39900  -25298.779      149.35133     -25149.428      186.6203       187.80468      346.12732    
     40000  -25284.681      148.88196     -25135.799      186.58624      187.77118      346.2716     
     40100  -25271.661      147.00026     -25124.66       186.54885      187.73467      346.41588    
     40200  -25263.567      146.73879     -25116.828      186.51382      187.70063      346.56016    
     40300  -25253.992      144.43145     -25109.561      186.47738      187.66557      346.70444    
     40400  -25242.656      144.9962      -25097.66       186.44073      187.63087      346.84872    
     40500  -25232.933      148.23038     -25084.702      186.40532      187.59772      346.993      
     40600  -25220.204      146.93618     -25073.268      186.36809      187.56284      347.13728    
     40700  -25212.422      151.11021     -25061.312      186.33291      187.52982      347.28156    
     40800  -25195.768      147.55233     -25048.215      186.29676      187.49591      347.42584    
     40900  -25187.555      151.26569     -25036.289      186.26112      187.46266      347.57012    
     41000  -25175.23       147.38969     -25027.84       186.2247       187.42877      347.7144     
     41100  -25166.548      145.73883     -25020.809      186.18988      187.3963       347.85868    
     41200  -25154.16       143.97143     -25010.189      186.15418      187.36175      348.00296    
     41300  -25141.165      145.91041     -24995.254      186.11988      187.32775      348.14724    
     41400  -25133.156      150.77848     -24982.378      186.08585      187.2933       348.29152    
     41500  -25119.113      146.4934      -24972.619      186.05149      187.25844      348.43579    
     41600  -25109.958      146.58921     -24963.369      186.01821      187.22403      348.58007    
     41700  -25098.666      143.69282     -24954.973      185.98417      187.18875      348.72435    
     41800  -25091.207      143.77523     -24947.432      185.95123      187.15471      348.86863    
     41900  -25076.861      140.61718     -24936.244      185.9171       187.11982      349.01291    
     42000  -25068.366      148.61748     -24919.749      185.88328      187.08616      349.15719    
     42100  -25057.234      150.48896     -24906.745      185.84919      187.05236      349.30147    
     42200  -25045.489      150.2153      -24895.274      185.81518      187.01902      349.44575    
     42300  -25030.61       145.01752     -24885.593      185.78042      186.98529      349.59003    
     42400  -25022.617      145.02044     -24877.597      185.7458       186.95259      349.73431    
     42500  -25012.931      144.16461     -24868.766      185.71132      186.92074      349.87859    
     42600  -24999.442      144.56513     -24854.877      185.67505      186.88796      350.02287    
     42700  -24990.339      150.90958     -24839.429      185.64088      186.85758      350.16715    
     42800  -24975.676      146.72778     -24828.948      185.60488      186.82546      350.31143    
     42900  -24968.497      147.73347     -24820.764      185.57068      186.79469      350.45571    
     43000  -24958.944      147.29633     -24811.647      185.53575      186.76274      350.59999    
     43100  -24947.985      147.55204     -24800.433      185.50239      186.7319       350.74427    
     43200  -24933.323      148.7349      -24784.588      185.4684       186.69933      350.88855    
     43300  -24919.413      147.7056      -24771.707      185.43657      186.66797      351.03283    
     43400  -24911.688      148.75574     -24762.932      185.40387      186.6345       351.17711    
     43500  -24900.952      145.72461     -24755.228      185.37278      186.60228      351.32139    
     43600  -24889.673      145.22982     -24744.443      185.34103      186.56906      351.46567    
     43700  -24877.179      145.52046     -24731.659      185.31045      186.53634      351.60995    
     43800  -24867.747      148.13595     -24719.611      185.27958      186.50274      351.75423    
     43900  -24857.242      148.47925     -24708.763      185.24917      186.47003      351.89851    
     44000  -24844.775      147.09821     -24697.677      185.21761      186.43715      352.04279    
     44100  -24833.36       148.36695     -24684.993      185.18657      186.40571      352.18707    
     44200  -24821.078      150.05803     -24671.02       185.15437      186.37348      352.33135    
     44300  -24809.127      149.46892     -24659.658      185.12311      186.34317      352.47563    
     44400  -24798.739      145.43131     -24653.308      185.09041      186.31264      352.61991    
     44500  -24789.811      145.83326     -24643.978      185.05752      186.28294      352.76419    
     44600  -24776.882      145.21615     -24631.666      185.0244       186.25384      352.90847    
     44700  -24767.783      150.13351     -24617.65       184.99095      186.22487      353.05275    
     44800  -24752.766      149.41683     -24603.349      184.95809      186.19614      353.19703    
     44900  -24741.417      151.83912     -24589.578      184.92414      186.16672      353.34131    
     45000  -24731.334      149.16834     -24582.166      184.89277      186.13886      353.48559    
     45100  -24720.945      145.54263     -24575.403      184.85941      186.10859      353.62987    
     45200  -24712.331      146.81203     -24565.519      184.82914      186.08017      353.77415    
     45300  -24699.298      146.32397     -24552.974      184.79797      186.04935      353.91843    
     45400  -24688.902      150.10885     -24538.793      184.76917      186.01963      354.06271    
     45500  -24674.083      148.59969     -24525.483      184.74009      185.98858      354.20699    
     45600  -24663.542      146.16049     -24517.382      184.71172      185.95749      354.35127    
     45700  -24656.885      146.84424     -24510.04       184.68441      185.92708      354.49555    
     45800  -24645.815      147.33193     -24498.483      184.65523      185.89474      354.63983    
     45900  -24633.28       148.96254     -24484.318      184.62875      185.86558      354.78411    
     46000  -24619.096      149.26129     -24469.835      184.59902      185.83351      354.92839    
     46100  -24608.525      149.7223      -24458.802      184.57268      185.80519      355.07267    
     46200  -24595.491      141.40158     -24454.09       184.54214      185.77381      355.21695    
     46300  -24590.237      147.20297     -24443.034      184.51446      185.74657      355.36123    
     46400  -24575.466      146.65501     -24428.811      184.48379      185.71778      355.50551    
     46500  -24563.213      148.88538     -24414.327      184.45406      185.69074      355.64979    
     46600  -24556.819      153.89856     -24402.921      184.42358      185.66369      355.79407    
     46700  -24541.86       145.97017     -24395.889      184.39296      185.63743      355.93835    
     46800  -24533.269      146.48219     -24386.787      184.36168      185.61098      356.08263    
     46900  -24521.093      147.53529     -24373.558      184.3311       185.58534      356.22691    
     47000  -24508.228      148.79573     -24359.433      184.30003      185.55868      356.37119    
     47100  -24492.699      146.3285      -24346.37       184.2701       185.53234      356.51547    
     47200  -24484.525      148.24346     -24336.282      184.24069      185.5057       356.65975    
     47300  -24478.426      147.87089     -24330.555      184.21188      185.47832      356.80403    
     47400  -24464.103      145.38865     -24318.715      184.18419      185.45074      356.94831    
     47500  -24452.863      148.84165     -24304.021      184.15699      185.4224       357.09258    
     47600  -24437.912      146.80103     -24291.111      184.13074      185.39395      357.23686    
     47700  -24428.562      147.46082     -24281.102      184.10494      185.36496      357.38114    
     47800  -24418.795      143.41654     -24275.378      184.07969      185.33578      357.52542    
     47900  -24408.968      145.85036     -24263.117      184.05461      185.30737      357.6697     
     48000  -24395.049      146.99533     -24248.053      184.02939      185.27903      357.81398    
     48100  -24384.704      150.33312     -24234.37       184.00345      185.25075      357.95826    
     48200  -24371.591      149.17827     -24222.412      183.97776      185.22344      358.10254    
     48300  -24357.413      143.93846     -24213.474      183.95172      185.19694      358.24682    
     48400  -24354.888      148.18585     -24206.702      183.92471      185.17102      358.3911     
     48500  -24339.975      146.32781     -24193.647      183.89662      185.14537      358.53538    
     48600  -24326.532      147.22034     -24179.311      183.86931      185.12158      358.67966    
     48700  -24316.143      150.19511     -24165.948      183.84025      185.0968       358.82394    
     48800  -24304.615      149.92171     -24154.693      183.812        185.07353      358.96822    
     48900  -24292.766      144.78991     -24147.976      183.78298      185.04982      359.1125     
     49000  -24283.929      145.87468     -24138.054      183.75479      185.02697      359.25678    
     49100  -24269.889      146.67818     -24123.211      183.72643      185.00301      359.40106    
     49200  -24257.922      148.79741     -24109.125      183.69899      184.9787       359.54534    
     49300  -24245.776      148.31061     -24097.465      183.67263      184.95417      359.68962    
     49400  -24233.075      145.39561     -24087.679      183.64619      184.92838      359.8339     
     49500  -24225.259      145.13213     -24080.127      183.62193      184.90285      359.97818    
     49600  -24215.431      143.73917     -24071.692      183.59658      184.87488      360.12246    
     49700  -24202.993      146.29869     -24056.694      183.57449      184.84902      360.26674    
     49800  -24191.206      148.23603     -24042.97       183.54996      184.82001      360.41102    
     49900  -24177.692      147.67382     -24030.019      183.52878      184.79394      360.5553     
     50000  -24166.426      148.78652     -24017.639      183.50527      184.76583      360.69958    
     50100  -24156.154      149.32697     -24006.827      183.48347      184.73981      360.84386    
     50200  -24143.343      145.67589     -23997.667      183.45998      184.71344      360.98814    
     50300  -24134.295      146.42411     -23987.871      183.43634      184.68833      361.13242    
     50400  -24121.132      145.82713     -23975.305      183.41194      184.66407      361.2767     
     50500  -24107.562      148.59905     -23958.963      183.38673      184.64007      361.42098    
     50600  -24095.296      149.20894     -23946.087      183.36138      184.61766      361.56526    
     50700  -24082.658      145.17392     -23937.484      183.33426      184.59487      361.70954    
     50800  -24076.088      148.1363      -23927.952      183.30802      184.57436      361.85382    
     50900  -24064.176      148.02625     -23916.149      183.28015      184.55295      361.9981     
     51000  -24049.84       146.52787     -23903.313      183.25365      184.53205      362.14238    
     51100  -24040.815      151.29176     -23889.523      183.22692      184.51075      362.28666    
     51200  -24026.417      151.8365      -23874.58       183.20094      184.48899      362.43094    
     51300  -24016.83       152.08606     -23864.744      183.17561      184.46707      362.57522    
     51400  -24004.817      147.37128     -23857.446      183.1504       184.44402      362.7195     
     51500  -23994.554      147.60687     -23846.947      183.1266       184.42034      362.86378    
     51600  -23982.518      147.28871     -23835.229      183.10365      184.39539      363.00806    
     51700  -23970.139      147.46006     -23822.679      183.08149      184.3703       363.15234    
     51800  -23958.089      148.57245     -23809.516      183.0599       184.34479      363.29662    
     51900  -23945.533      148.05419     -23797.479      183.03785      184.3187       363.4409     
     52000  -23936.2        147.54509     -23788.655      183.01807      184.29394      363.58518    
     52100  -23924.515      144.73279     -23779.782      182.99575      184.26668      363.72946    
     52200  -23912.69       145.04267     -23767.648      182.97672      184.24271      363.87374    
     52300  -23900.797      147.91391     -23752.883      182.95409      184.21668      364.01802    
     52400  -23887.865      152.38724     -23735.478      182.93359      184.19388      364.1623     
     52500  -23874.626      150.1421      -23724.484      182.90943      184.16906      364.30658    
     52600  -23865.386      150.03057     -23715.355      182.88799      184.14817      364.45086    
     52700  -23855.944      149.92672     -23706.018      182.86291      184.12521      364.59514    
     52800  -23843.811      147.40449     -23696.406      182.83939      184.10487      364.73942    
     52900  -23831.42       145.71836     -23685.701      182.81432      184.08415      364.8837     
     53000  -23819.729      145.70932     -23674.02       182.78939      184.06453      365.02798    
     53100  -23808.109      149.08101     -23659.028      182.76379      184.04456      365.17226    
     53200  -23795.734      151.16274     -23644.571      182.73868      184.02496      365.31654    
     53300  -23784.489      149.48592     -23635.003      182.71381      184.00486      365.46082    
     53400  -23773.744      147.15439     -23626.589      182.68907      183.98425      365.60509    
     53500  -23762.158      147.21813     -23614.939      182.66512      183.96344      365.74937    
     53600  -23751.563      149.59136     -23601.971      182.64176      183.94186      365.89365    
     53700  -23734.59       146.47793     -23588.112      182.61918      183.91953      366.03793    
     53800  -23724.106      151.8117      -23572.294      182.59736      183.89649      366.18221    
     53900  -23711.389      150.56072     -23560.829      182.57616      183.87251      366.32649    
     54000  -23700.486      146.88867     -23553.597      182.55598      183.84909      366.47077    
     54100  -23692.804      149.18207     -23543.621      182.5353       183.82415      366.61505    
     54200  -23681.481      148.51934     -23532.961      182.51571      183.8          366.75933    
     54300  -23668.796      146.64602     -23522.15       182.49594      183.77548      366.90361    
     54400  -23659.352      147.41395     -23511.938      182.47586      183.75097      367.04789    
     54500  -23644.409      143.60676     -23500.802      182.45576      183.72738      367.19217    
     54600  -23633.294      148.00324     -23485.291      182.43477      183.70474      367.33645    
     54700  -23618.699      149.38646     -23469.312      182.41347      183.68288      367.48073    
     54800  -23608.199      150.32761     -23457.872      182.39066      183.66119      367.62501    
     54900  -23596.702      147.87375     -23448.828      182.36905      183.64118      367.76929    
     55000  -23585.488      147.35479     -23438.133      182.34557      183.62077      367.91357    
     55100  -23574.522      149.02954     -23425.493      182.32246      183.60137      368.05785    
     55200  -23562.688      149.13918     -23413.549      182.29812      183.58175      368.20213    
     55300  -23549.125      146.19454     -23402.93       182.27458      183.56285      368.34641    
     55400  -23539.577      144.98566     -23394.591      182.25129      183.54351      368.49069    
     55500  -23526.274      144.12087     -23382.154      182.22733      183.52315      368.63497    
     55600  -23512.279      146.36454     -23365.915      182.20506      183.50347      368.77925    
     55700  -23500.106      148.55847     -23351.548      182.18196      183.48197      368.92353    
     55800  -23487.488      147.15046     -23340.338      182.16038      183.46144      369.06781    
     55900  -23479.046      148.38067     -23330.666      182.1388       183.4396       369.21209    
     56000  -23467.962      147.9828      -23319.98       182.11815      183.41751      369.35637    
     56100  -23455.371      147.16283     -23308.209      182.09779      183.39497      369.50065    
     56200  -23441.796      144.77877     -23297.017      182.07713      183.37157      369.64493    
     56300  -23433.991      145.69323     -23288.298      182.05827      183.34926      369.78921    
     56400  -23421.799      146.04925     -23275.75       182.03755      183.32495      369.93349    
     56500  -23405.975      146.88349     -23259.092      182.01847      183.30223      370.07777    
     56600  -23393.198      148.65161     -23244.546      181.99784      183.27859      370.22205    
     56700  -23384.329      150.13615     -23234.193      181.97875      183.25656      370.36633    
     56800  -23370.551      147.24755     -23223.303      181.95785      183.23424      370.51061    
     56900  -23360.473      149.06317     -23211.41       181.9373       183.21338      370.65489    
     57000  -23347.954      147.79575     -23200.158      181.91541      183.19266      370.79917    
     57100  -23336.533      146.88016     -23189.653      181.89378      183.17274      370.94345    
     57200  -23325.681      144.93764     -23180.743      181.87153      183.1531       371.08773    
     57300  -23315.741      143.58622     -23172.155      181.84842      183.13383      371.23201    
     57400  -23302.798      146.13646     -23156.661      181.82549      183.11522      371.37629    
     57500  -23286.581      145.70966     -23140.871      181.80131      183.09581      371.52057    
     57600  -23278.043      150.5725      -23127.47       181.77827      183.07724      371.66485    
     57700  -23264.393      149.6901      -23114.703      181.75534      183.0585       371.80913    
     57800  -23253.271      149.44733     -23103.824      181.7319       183.03838      371.95341    
     57900  -23242.51       148.30555     -23094.205      181.71085      183.01922      372.09769    
     58000  -23228.358      146.16571     -23082.192      181.68877      182.998        372.24197    
     58100  -23217.251      149.79281     -23067.458      181.66767      182.9768       372.38625    
     58200  -23200.527      151.9897      -23048.537      181.64773      182.95526      372.53053    
     58300  -23187.515      152.29826     -23035.216      181.62702      182.93156      372.67481    
     58400  -23176.114      149.69835     -23026.416      181.60846      182.90979      372.81909    
     58500  -23166.422      149.24458     -23017.178      181.58817      182.88524      372.96337    
     58600  -23154.844      147.28932     -23007.555      181.57029      182.86304      373.10765    
     58700  -23145.16       147.95284     -22997.207      181.5505       182.83884      373.25193    
     58800  -23133.325      148.5001      -22984.825      181.53117      182.8156       373.39621    
     58900  -23122.192      150.66417     -22971.528      181.51236      182.79309      373.54049    
     59000  -23104.751      147.14106     -22957.61       181.49203      182.77045      373.68477    
     59100  -23093.835      148.74175     -22945.093      181.47255      182.74967      373.82905    
     59200  -23081.581      146.14182     -22935.439      181.4507       182.72797      373.97333    
     59300  -23070.465      146.77198     -22923.693      181.43014      182.70813      374.11761    
     59400  -23055.301      144.28103     -22911.02       181.40722      182.68755      374.26188    
     59500  -23041.392      145.58925     -22895.803      181.38531      182.66888      374.40616    
     59600  -23030.154      150.53687     -22879.618      181.3614       182.64936      374.55044    
     59700  -23019.361      151.50312     -22867.858      181.33764      182.62992      374.69472    
     59800  -23007.827      148.67959     -22859.148      181.3161       182.61279      374.839      
     59900  -22995.546      147.37453     -22848.171      181.29136      182.59249      374.98328    
     60000  -22984.4        148.27543     -22836.125      181.26944      182.57405      375.12756    
     60100  -22971.448      147.29094     -22824.157      181.24664      182.5541       375.27184    
     60200  -22961.603      148.11962     -22813.484      181.22499      182.53388      375.41612    
     60300  -22949.747      146.90494     -22802.842      181.20408      182.51325      375.5604     
     60400  -22934.751      146.81897     -22787.932      181.18222      182.49073      375.70468    
     60500  -22918.47       150.02107     -22768.449      181.16218      182.46918      375.84896    
     60600  -22906.495      152.15581     -22754.339      181.14137      182.44578      375.99324    
     60700  -22894.073      149.7224      -22744.35       181.12197      182.42337      376.13752    
     60800  -22882.945      148.8928      -22734.053      181.10198      182.39952      376.2818     
     60900  -22870.318      147.47074     -22722.847      181.0825       182.3763       376.42608    
     61000  -22859.777      148.62229     -22711.155      181.06391      182.35408      376.57036    
     61100  -22847.217      147.62307     -22699.594      181.04302      182.33049      376.71464    
     61200  -22835.002      147.57884     -22687.423      181.02406      182.30902      376.85892    
     61300  -22821.11       144.90352     -22676.206      181.00275      182.28635      377.0032     
     61400  -22809.151      144.476       -22664.675      180.98226      182.2652       377.14748    
     61500  -22797.182      148.74417     -22648.438      180.96087      182.24404      377.29176    
     61600  -22779.61       149.01258     -22630.598      180.93794      182.22226      377.43604    
     61700  -22766.208      149.8884      -22616.32       180.91689      182.20317      377.58032    
     61800  -22756.058      148.53373     -22607.524      180.89315      182.18149      377.7246     
     61900  -22745.068      149.95253     -22595.115      180.87148      182.16272      377.86888    
     62000  -22731.804      149.58988     -22582.215      180.84758      182.1427       378.01316    
     62100  -22715.537      145.52643     -22570.011      180.82397      182.12255      378.15744    
     62200  -22705.769      147.52276     -22558.246      180.80286      182.10433      378.30172    
     62300  -22693.253      146.98305     -22546.27       180.77783      182.08169      378.446      
     62400  -22679.799      147.76918     -22532.029      180.75703      182.06338      378.59028    
     62500  -22667.236      149.06558     -22518.171      180.73378      182.04086      378.73456    
     62600  -22650.931      146.40329     -22504.528      180.71228      182.01883      378.87884    
     62700  -22640.865      149.07983     -22491.785      180.69185      181.99758      379.02312    
     62800  -22624.558      144.87605     -22479.682      180.6693       181.97355      379.1674     
     62900  -22613.371      145.47122     -22467.9        180.65028      181.95173      379.31168    
     63000  -22599.972      144.61619     -22455.356      180.62898      181.92745      379.45596    
     63100  -22588.878      146.12586     -22442.752      180.60889      181.90406      379.60024    
     63200  -22575.609      147.00366     -22428.605      180.58996      181.88179      379.74452    
     63300  -22561.182      149.74226     -22411.44       180.56772      181.85635      379.8888     
     63400  -22543.514      150.46772     -22393.046      180.54884      181.83518      380.03308    
     63500  -22529.898      149.61788     -22380.28       180.527        181.81146      380.17736    
     63600  -22519.469      149.33926     -22370.13       180.50583      181.78943      380.32164    
     63700  -22505.859      149.44881     -22356.41       180.48433      181.7681       380.46592    
     63800  -22492.036      148.02538     -22344.01       180.46096      181.74576      380.6102     
     63900  -22476.882      145.89236     -22330.99       180.43926      181.72574      380.75448    
     64000  -22465.085      146.72372     -22318.361      180.41541      181.70469      380.89876    
     64100  -22449.07       144.26925     -22304.801      180.39216      181.68469      381.04304    
     64200  -22441.194      145.87705     -22295.317      180.3686       181.66441      381.18732    
     64300  -22424.796      145.18999     -22279.606      180.34475      181.64401      381.3316     
     64400  -22407.715      146.61009     -22261.104      180.32121      181.62402      381.47588    
     64500  -22395.203      151.14206     -22244.061      180.29728      181.60327      381.62016    
     64600  -22380.885      150.93577     -22229.949      180.27402      181.58203      381.76444    
     64700  -22367.788      151.2619      -22216.526      180.25097      181.56034      381.90872    
     64800  -22351.375      148.82539     -22202.55       180.22818      181.53831      382.053      
     64900  -22338.746      149.17447     -22189.572      180.20613      181.51605      382.19728    
     65000  -22324.163      147.14764     -22177.016      180.18461      181.49296      382.34156    
     65100  -22308.815      146.226       -22162.589      180.16285      181.46948      382.48584    
     65200  -22297.213      148.75377     -22148.46       180.1421       181.44641      382.63012    
     65300  -22284.042      148.82999     -22135.212      180.12141      181.42196      382.7744     
     65400  -22270.017      145.0025      -22125.015      180.10052      181.39793      382.91867    
     65500  -22255.174      146.12292     -22109.051      180.08032      181.3749       383.06295    
     65600  -22240.115      149.19333     -22090.922      180.05871      181.3497       383.20723    
     65700  -22222.581      150.42269     -22072.158      180.03828      181.32653      383.35151    
     65800  -22207.03       149.57385     -22057.456      180.01602      181.3031       383.49579    
     65900  -22193.176      146.84956     -22046.326      179.99413      181.28016      383.64007    
     66000  -22181.962      150.40131     -22031.56       179.97217      181.25799      383.78435    
     66100  -22162.741      146.45604     -22016.285      179.94866      181.23552      383.92863    
     66200  -22152.098      149.84143     -22002.257      179.9261       181.21457      384.07291    
     66300  -22134.978      146.77498     -21988.203      179.90194      181.19258      384.21719    
     66400  -22117.972      145.97667     -21971.995      179.87819      181.17154      384.36147    
     66500  -22102.578      147.90306     -21954.675      179.85421      181.15062      384.50575    
     66600  -22088.521      148.99529     -21939.525      179.82912      181.1288       384.65003    
     66700  -22076.349      151.46502     -21924.884      179.80516      181.10794      384.79431    
     66800  -22057.349      148.33702     -21909.012      179.78087      181.08621      384.93859    
     66900  -22042.829      148.93098     -21893.898      179.75697      181.06455      385.08287    
     67000  -22028.255      148.71929     -21879.536      179.73325      181.04217      385.22715    
     67100  -22010.865      146.89362     -21863.971      179.70998      181.01969      385.37143    
     67200  -21997.138      149.0655      -21848.072      179.68713      180.99692      385.51571    
     67300  -21982.677      150.68027     -21831.997      179.66409      180.97328      385.65999    
     67400  -21964.135      147.82169     -21816.313      179.64236      180.95022      385.80427    
     67500  -21949.549      148.8941      -21800.655      179.62025      180.92597      385.94855    
     67600  -21934.962      150.0855      -21784.877      179.59847      180.90195      386.09283    
     67700  -21918.135      148.68743     -21769.448      179.57666      180.87742      386.23711    
     67800  -21904.295      150.4789      -21753.816      179.55506      180.8526       386.38139    
     67900  -21887.715      150.30294     -21737.413      179.5337       180.8287       386.52567    
     68000  -21870.914      149.74333     -21721.17       179.51159      180.80382      386.66995    
     68100  -21854.05       149.89901     -21704.151      179.49061      180.78042      386.81423    
     68200  -21836.93       148.88627     -21688.044      179.46722      180.75572      386.95851    
     68300  -21821.103      149.1882      -21671.915      179.44532      180.73294      387.10279    
     68400  -21804.749      149.71234     -21655.037      179.42204      180.70903      387.24707    
[...]
     81600  -27661.85       230.98217     -27430.868      177.29324      178.54042      406.29201    
     81700  -27720.952      193.08719     -27527.865      177.26744      178.52298      406.43629    
     81800  -27769.318      156.13979     -27613.178      177.25394      178.52553      406.58057    
     81900  -27787.122      129.82112     -27657.301      177.23669      178.52507      406.72485    
     82000  -27814.163      144.43649     -27669.727      177.22072      178.52536      406.86913    
     82100  -27829.639      153.04129     -27676.598      177.20486      178.52938      407.01341    
     82200  -27845.364      152.50751     -27692.857      177.18763      178.53197      407.15769    
     82300  -27834.298      126.51689     -27707.781      177.17191      178.53464      407.30197    
     82400  -27822.943      132.15842     -27690.784      177.15578      178.53149      407.44625    
     82500  -27800.748      149.37351     -27651.375      177.14079      178.52301      407.59053    
     82600  -27770.015      151.49903     -27618.516      177.13434      178.51789      407.73481    
     82700  -27744.727      148.23999     -27596.487      177.12312      178.50642      407.87909    
     82800  -27721.13       143.98552     -27577.145      177.11458      178.50051      408.02337    
     82900  -27687.469      136.63502     -27550.834      177.09687      178.49445      408.16765    
     83000  -27685.466      170.12217     -27515.344      177.07965      178.49157      408.31193    
     83100  -27695.307      175.65148     -27519.655      177.06929      178.49262      408.45621    
     83200  -27714.431      148.37111     -27566.06       177.06069      178.49274      408.60048    
     83300  -27739.848      141.86808     -27597.98       177.0546       178.49797      408.74476    
     83400  -27757.75       142.77142     -27614.978      177.042        178.50565      408.88904    
     83500  -27781.847      155.30291     -27626.544      177.0216       178.5183       409.03332    
     83600  -27809.592      156.87639     -27652.715      176.99663      178.5313       409.1776     
     83700  -27828.179      143.0562      -27685.123      176.97336      178.54599      409.32188    
     83800  -27838.021      134.38662     -27703.635      176.95174      178.55947      409.46616    
     83900  -27835.98       136.10146     -27699.879      176.93131      178.56977      409.61044    
     84000  -27825.518      147.24856     -27678.269      176.9148       178.57715      409.75472    
     84100  -27808.371      150.67862     -27657.692      176.89886      178.5801       409.899      
     84200  -27783.726      140.24704     -27643.479      176.88622      178.58483      410.04328    
     84300  -27753.901      134.0902      -27619.81       176.87241      178.58827      410.18756    
     84400  -27718.904      136.50055     -27582.404      176.85473      178.59106      410.33184    
     84500  -27689.517      147.77028     -27541.747      176.8407       178.59654      410.47612    
     84600  -27672.667      160.545       -27512.122      176.83318      178.60241      410.6204     
     84700  -27671.878      163.58388     -27508.294      176.82855      178.60495      410.76468    
     84800  -27697.502      162.7609      -27534.741      176.82667      178.61038      410.90896    
     84900  -27725.714      148.80896     -27576.905      176.82274      178.61704      411.05324    
     85000  -27749.341      139.91577     -27609.426      176.81952      178.62875      411.19752    
     85100  -27759.239      136.80197     -27622.437      176.81133      178.63959      411.3418     
     85200  -27768.188      151.81391     -27616.374      176.80444      178.65319      411.48608    
     85300  -27776.194      159.02367     -27617.171      176.79427      178.66918      411.63036    
     85400  -27788.901      147.59983     -27641.301      176.77604      178.68378      411.77464    
     85500  -27792.83       132.14583     -27660.684      176.75591      178.69716      411.91892    
     85600  -27796.406      140.82519     -27655.581      176.73391      178.71218      412.0632     
     85700  -27785.31       149.9652      -27635.345      176.70657      178.72492      412.20748    
     85800  -27767.289      150.21734     -27617.072      176.68278      178.73646      412.35176    
     85900  -27753.211      149.23392     -27603.977      176.65797      178.74389      412.49604    
     86000  -27751.097      155.68227     -27595.414      176.63918      178.75148      412.64032    
     86100  -27748.844      147.94059     -27600.903      176.61984      178.75306      412.7846     
     86200  -27751.398      141.69155     -27609.707      176.60275      178.75426      412.92888    
     86300  -27759.205      148.72541     -27610.48       176.58803      178.75443      413.07316    
     86400  -27752.737      144.07897     -27608.658      176.5684       178.75134      413.21744    
     86500  -27759.906      153.94036     -27605.966      176.5496       178.75471      413.36172    
     86600  -27775.873      159.21116     -27616.662      176.52686      178.76255      413.506      
     86700  -27792.013      146.18298     -27645.83       176.49488      178.77011      413.65028    
     86800  -27802.987      135.83191     -27667.155      176.46515      178.78279      413.79456    
     86900  -27805.767      138.04164     -27667.725      176.43241      178.79479      413.93884    
     87000  -27801.357      149.09168     -27652.265      176.39914      178.80397      414.08312    
     87100  -27799.969      160.59376     -27639.376      176.37217      178.81687      414.2274     
     87200  -27800.843      150.55449     -27650.288      176.34598      178.82991      414.37168    
     87300  -27795.861      132.94047     -27662.92       176.32161      178.8398       414.51596    
     87400  -27788.028      137.3574      -27650.671      176.30348      178.85259      414.66024    
     87500  -27764.66       143.38966     -27621.27       176.28326      178.8635       414.80452    
     87600  -27745.442      154.43189     -27591.01       176.26531      178.87671      414.9488     
     87700  -27740.42       162.89389     -27577.526      176.25013      178.89099      415.09308    
     87800  -27739.839      150.6938      -27589.146      176.23887      178.90063      415.23736    
     87900  -27753.627      148.07039     -27605.556      176.22807      178.90708      415.38164    
     88000  -27764.871      144.75156     -27620.119      176.2195       178.91767      415.52592    
     88100  -27778.612      147.42256     -27631.189      176.20819      178.92222      415.6702     
     88200  -27783.984      145.4565      -27638.527      176.19704      178.9268       415.81448    
     88300  -27784.622      144.13971     -27640.483      176.18267      178.93649      415.95876    
     88400  -27786.353      148.09557     -27638.257      176.16219      178.94417      416.10304    
     88500  -27783.669      148.80774     -27634.861      176.13885      178.9548       416.24732    
     88600  -27780.804      146.30712     -27634.497      176.1166       178.96964      416.3916     
     88700  -27778.668      145.87313     -27632.795      176.09029      178.97898      416.53588    
     88800  -27771.944      144.50024     -27627.444      176.06273      178.98917      416.68016    
     88900  -27758.494      141.96576     -27616.528      176.03352      178.99816      416.82444    
     89000  -27753.724      151.5522      -27602.172      175.99664      179.00125      416.96872    
     89100  -27752.868      156.85375     -27596.014      175.95667      179.00662      417.113      
     89200  -27756.205      151.73449     -27604.47       175.90871      179.01224      417.25727    
     89300  -27769.139      148.69752     -27620.441      175.86043      179.01833      417.40155    
     89400  -27780.894      143.65082     -27637.243      175.80663      179.02315      417.54583    
     89500  -27794.42       145.50962     -27648.91       175.75598      179.03034      417.69011    
     89600  -27801.447      145.97417     -27655.473      175.70735      179.03598      417.83439    
     89700  -27807.95       147.09704     -27660.853      175.65842      179.04062      417.97867    
     89800  -27814.974      148.20768     -27666.767      175.61387      179.04577      418.12295    
     89900  -27811.639      142.47162     -27669.168      175.57092      179.04867      418.26723    
     90000  -27809.341      144.79782     -27664.544      175.53115      179.05277      418.41151    
     90100  -27802.297      149.00649     -27653.291      175.49461      179.05917      418.55579    
     90200  -27792.434      150.93918     -27641.495      175.4608       179.06785      418.70007    
     90300  -27785.163      149.21431     -27635.949      175.43079      179.07883      418.84435    
     90400  -27783.774      147.94822     -27635.826      175.40233      179.09164      418.98863    
     90500  -27783.361      147.19577     -27636.165      175.37625      179.1069       419.13291    
     90600  -27779.471      146.35803     -27633.113      175.35018      179.12226      419.27719    
     90700  -27777.527      150.73276     -27626.795      175.32233      179.13627      419.42147    
     90800  -27772.971      148.95502     -27624.016      175.29457      179.15308      419.56575    
     90900  -27773.943      147.9989      -27625.944      175.26699      179.16972      419.71003    
     91000  -27774.731      146.6329      -27628.098      175.2397       179.18657      419.85431    
     91100  -27774.082      146.13145     -27627.95       175.21389      179.20595      419.99859    
     91200  -27771.085      145.73551     -27625.35       175.18567      179.22274      420.14287    
     91300  -27772.164      149.12471     -27623.039      175.15471      179.23865      420.28715    
     91400  -27765.16       145.48589     -27619.675      175.12336      179.25106      420.43143    
     91500  -27761.372      147.47582     -27613.896      175.08465      179.25706      420.57571    
     91600  -27757.182      149.72237     -27607.46       175.04158      179.26054      420.71999    
     91700  -27752.156      148.96167     -27603.195      174.98924      179.25875      420.86427    
     91800  -27753.503      148.32963     -27605.173      174.92834      179.25615      421.00855    
     91900  -27762.56       149.39044     -27613.169      174.85758      179.25582      421.15283    
     92000  -27768.057      146.65666     -27621.4        174.77609      179.25797      421.29711    
     92100  -27770.291      145.03765     -27625.254      174.68781      179.26485      421.44139    
     92200  -27774.549      148.0533      -27626.495      174.59021      179.27785      421.58567    
     92300  -27783.683      151.15441     -27632.529      174.48837      179.29345      421.72995    
     92400  -27791.038      146.78055     -27644.257      174.3831       179.30755      421.87423    
     92500  -27797.074      143.3049      -27653.77       174.28099      179.32253      422.01851    
     92600  -27797.509      141.74574     -27655.763      174.18159      179.33419      422.16279    
     92700  -27798.246      148.36337     -27649.882      174.08654      179.33847      422.30707    
     92800  -27797.688      153.34772     -27644.34       174.00252      179.34273      422.45135    
     92900  -27801.371      151.86075     -27649.51       173.92426      179.34201      422.59563    
     93000  -27802.574      142.64128     -27659.933      173.85454      179.33864      422.73991    
     93100  -27805.81       142.56111     -27663.249      173.79479      179.34006      422.88419    
     93200  -27801.244      145.06546     -27656.179      173.73616      179.34029      423.02847    
     93300  -27794.122      149.79715     -27644.325      173.67888      179.34431      423.17275    
     93400  -27790.745      155.07352     -27635.671      173.62434      179.35318      423.31703    
     93500  -27787.634      149.75803     -27637.876      173.56732      179.36412      423.46131    
     93600  -27787.898      143.41443     -27644.484      173.50851      179.3804       423.60559    
     93700  -27788.301      143.44542     -27644.855      173.44953      179.39946      423.74987    
     93800  -27783.752      147.69437     -27636.058      173.38709      179.42156      423.89415    
     93900  -27774.354      148.48839     -27625.866      173.32428      179.44537      424.03843    
     94000  -27769.954      150.0269      -27619.927      173.26176      179.4696       424.18271    
     94100  -27766.71       146.7561      -27619.954      173.195        179.49149      424.32699    
     94200  -27764.491      145.17464     -27619.316      173.12668      179.50929      424.47127    
     94300  -27764.646      150.13097     -27614.515      173.05868      179.52193      424.61555    
     94400  -27760.206      150.50101     -27609.705      172.98983      179.52788      424.75983    
     94500  -27761.571      153.09401     -27608.477      172.91904      179.52796      424.90411    
     94600  -27765.01       150.70003     -27614.31       172.84498      179.52395      425.04839    
     94700  -27768.272      145.19164     -27623.08       172.76501      179.51894      425.19267    
     94800  -27772.742      145.72178     -27627.02       172.67957      179.51358      425.33695    
     94900  -27775.133      149.6857      -27625.447      172.58758      179.50885      425.48123    
     95000  -27776.159      150.54125     -27625.618      172.48918      179.50511      425.62551    
     95100  -27777.699      146.50456     -27631.194      172.38619      179.50455      425.76979    
     95200  -27781.931      144.115       -27637.816      172.2764       179.50668      425.91406    
     95300  -27782.11       143.85564     -27638.254      172.16624      179.51035      426.05834    
     95400  -27781.435      149.26807     -27632.167      172.05551      179.51611      426.20262    
     95500  -27778.423      152.31938     -27626.104      171.94711      179.52237      426.3469     
     95600  -27783.911      153.91547     -27629.996      171.84338      179.52816      426.49118    
     95700  -27789.482      146.20496     -27643.277      171.74497      179.53372      426.63546    
     95800  -27794.795      141.06498     -27653.73       171.65524      179.53851      426.77974    
     95900  -27799.239      144.76618     -27654.473      171.57182      179.54092      426.92402    
     96000  -27800.188      149.9006      -27650.287      171.49683      179.54368      427.0683     
     96100  -27802.608      150.99576     -27651.612      171.42861      179.54466      427.21258    
     96200  -27804.155      144.14631     -27660.008      171.36628      179.54332      427.35686    
     96300  -27805.131      140.99501     -27664.136      171.31046      179.54178      427.50114    
     96400  -27798.607      143.20089     -27655.406      171.25788      179.53892      427.64542    
     96500  -27783.904      147.46647     -27636.437      171.20701      179.53813      427.7897     
     96600  -27776.979      155.92049     -27621.058      171.16028      179.54073      427.93398    
     96700  -27769.435      150.82289     -27618.612      171.11172      179.5432       428.07826    
     96800  -27769.387      146.02955     -27623.358      171.06119      179.54924      428.22254    
     96900  -27768.171      143.11065     -27625.06       171.00828      179.55778      428.36682    
     97000  -27765.845      146.79145     -27619.054      170.94725      179.56398      428.5111     
     97100  -27763.805      152.81116     -27610.994      170.88555      179.57512      428.65538    
     97200  -27763.47       151.96102     -27611.509      170.81742      179.58691      428.79966    
     97300  -27770.249      149.00698     -27621.242      170.74239      179.59592      428.94394    
     97400  -27779.913      146.46661     -27633.447      170.66882      179.60825      429.08822    
     97500  -27786.159      143.79631     -27642.363      170.58985      179.61571      429.2325     
     97600  -27790.605      145.56343     -27645.042      170.51031      179.61964      429.37678    
     97700  -27789.502      146.67023     -27642.832      170.43361      179.62182      429.52106    
     97800  -27787.987      148.87076     -27639.117      170.35926      179.61692      429.66534    
     97900  -27780.103      145.88037     -27634.223      170.28799      179.60822      429.80962    
     98000  -27774.279      147.40839     -27626.871      170.22132      179.59974      429.9539     
     98100  -27769.202      148.88306     -27620.319      170.15721      179.58999      430.09818    
     98200  -27772.003      152.77953     -27619.223      170.09576      179.57904      430.24246    
     98300  -27773.704      148.9899      -27624.714      170.03619      179.57158      430.38674    
     98400  -27775.625      144.32917     -27631.296      169.97459      179.56691      430.53102    
     98500  -27782.466      147.32339     -27635.142      169.91133      179.56579      430.6753     
     98600  -27782.904      146.62626     -27636.278      169.84706      179.5696       430.81958    
     98700  -27788.925      149.59766     -27639.327      169.78219      179.57792      430.96386    
     98800  -27795.321      147.21957     -27648.101      169.71773      179.58789      431.10814    
     98900  -27802.022      144.59385     -27657.428      169.65766      179.60032      431.25242    
     99000  -27801.652      142.47045     -27659.181      169.60083      179.61084      431.3967     
     99100  -27799.742      147.37512     -27652.366      169.54633      179.61719      431.54098    
     99200  -27794.439      151.96371     -27642.475      169.50048      179.62325      431.68526    
     99300  -27787.814      150.68395     -27637.13       169.45965      179.62243      431.82954    
     99400  -27782.523      146.15939     -27636.364      169.42523      179.61863      431.97382    
     99500  -27775.165      143.87737     -27631.287      169.39852      179.61291      432.1181     
     99600  -27766.356      147.90818     -27618.448      169.37227      179.60261      432.26238    
     99700  -27757.921      152.81079     -27605.111      169.34906      179.59599      432.40666    
     99800  -27755.175      152.90449     -27602.271      169.3238       179.58816      432.55094    
     99900  -27762.55       150.80024     -27611.75       169.29366      179.58273      432.69522    
    100000  -27771.418      145.86552     -27625.553      169.26006      179.58337      432.8395     
Loop time of 54796.7 on 12 procs for 100000 steps with 3808 atoms

Performance: 0.158 ns/day, 152.213 hours/ns, 1.825 timesteps/s, 6.949 katom-step/s
40.8% CPU use with 12 MPI tasks x 1 OpenMP threads

MPI task timing breakdown:
Section |  min time  |  avg time  |  max time  |%varavg| %total
---------------------------------------------------------------
Pair    | 664.64     | 781.25     | 914.68     | 286.4 |  1.43
Neigh   | 1.7103     | 2.9389     | 4.7308     |  58.1 |  0.01
Comm    | 8059       | 8748.7     | 9575.4     | 471.7 | 15.97
Output  | 171.7      | 176.43     | 181.25     |  21.5 |  0.32
Modify  | 39233      | 40004      | 40668      | 211.9 | 73.00
Other   |            | 5084       |            |       |  9.28

Nlocal:        317.333 ave         504 max         160 min
Histogram: 3 1 0 1 3 0 0 1 1 2
Nghost:        1183.67 ave        1795 max         677 min
Histogram: 4 0 0 3 1 0 0 0 0 4
Neighs:              0 ave           0 max           0 min
Histogram: 12 0 0 0 0 0 0 0 0 0

Total # of neighbors = 0
Ave neighs/atom = 0
Neighbor list builds = 551
Dangerous builds = 0
Total wall time: 15:13:32
