LAMMPS data file via write_data, version 2 Aug 2023, timestep = 0, units = metal

1480 atoms
3 atom types

-100 100 xlo xhi
-100 100 ylo yhi
-2.3312515 46.1661715 zlo zhi

Masses

1 12.0107
2 12.0107
3 12.0107

Atoms # atomic

9 1 -2.08242 -9.123678 0 0 0 0
10 1 -3.418975 -8.711406 0 0 0 0
11 1 -5.834811 -7.316622 0 0 0 0
12 1 -6.860127 -6.365268 0 0 0 0
13 1 -8.431547 -4.060419 0 0 0 0
14 1 -8.942547 -2.75841 0 0 0 0
36 1 -1.394784 -9.253786 1.212436 0 0 0
37 1 -4.060419 -8.431547 1.212436 0 0 0
38 1 -5.271724 -7.732199 1.212436 0 0 0
39 1 -7.316622 -5.834811 1.212436 0 0 0
40 1 -8.104535 -4.679155 1.212436 0 0 0
41 1 -9.123678 -2.08242 1.212436 0 0 0
42 1 -9.332143 -0.699347 1.212436 0 0 0
63 1 -2.08242 -9.123678 2.424871 0 0 0
64 1 -3.418975 -8.711406 2.424871 0 0 0
65 1 -5.834811 -7.316622 2.424871 0 0 0
66 1 -6.860127 -6.365268 2.424871 0 0 0
67 1 -8.431547 -4.060419 2.424871 0 0 0
68 1 -8.942547 -2.75841 2.424871 0 0 0
90 1 -1.394784 -9.253786 3.637307 0 0 0
91 1 -4.060419 -8.431547 3.637307 0 0 0
92 1 -5.271724 -7.732199 3.637307 0 0 0
93 1 -7.316622 -5.834811 3.637307 0 0 0
94 1 -8.104535 -4.679155 3.637307 0 0 0
95 1 -9.123678 -2.08242 3.637307 0 0 0
96 1 -9.332143 -0.699347 3.637307 0 0 0
117 1 -2.08242 -9.123678 4.849742 0 0 0
118 1 -3.418975 -8.711406 4.849742 0 0 0
119 1 -5.834811 -7.316622 4.849742 0 0 0
120 1 -6.860127 -6.365268 4.849742 0 0 0
121 1 -8.431547 -4.060419 4.849742 0 0 0
122 1 -8.942547 -2.75841 4.849742 0 0 0
144 1 -1.394784 -9.253786 6.062178 0 0 0
145 1 -4.060419 -8.431547 6.062178 0 0 0
146 1 -5.271724 -7.732199 6.062178 0 0 0
147 1 -7.316622 -5.834811 6.062178 0 0 0
148 1 -8.104535 -4.679155 6.062178 0 0 0
149 1 -9.123678 -2.08242 6.062178 0 0 0
150 1 -9.332143 -0.699347 6.062178 0 0 0
171 1 -2.08242 -9.123678 7.274613 0 0 0
172 1 -3.418975 -8.711406 7.274613 0 0 0
173 1 -5.834811 -7.316622 7.274613 0 0 0
174 1 -6.860127 -6.365268 7.274613 0 0 0
175 1 -8.431547 -4.060419 7.274613 0 0 0
176 1 -8.942547 -2.75841 7.274613 0 0 0
198 1 -1.394784 -9.253786 8.487049 0 0 0
199 1 -4.060419 -8.431547 8.487049 0 0 0
200 1 -5.271724 -7.732199 8.487049 0 0 0
201 1 -7.316622 -5.834811 8.487049 0 0 0
202 1 -8.104535 -4.679155 8.487049 0 0 0
203 1 -9.123678 -2.08242 8.487049 0 0 0
204 1 -9.332143 -0.699347 8.487049 0 0 0
225 1 -2.08242 -9.123678 9.699485 0 0 0
226 1 -3.418975 -8.711406 9.699485 0 0 0
227 1 -5.834811 -7.316622 9.699485 0 0 0
228 1 -6.860127 -6.365268 9.699485 0 0 0
229 1 -8.431547 -4.060419 9.699485 0 0 0
230 1 -8.942547 -2.75841 9.699485 0 0 0
253 1 -4.060419 -8.431547 10.91192 0 0 0
254 1 -5.271724 -7.732199 10.91192 0 0 0
255 1 -7.316622 -5.834811 10.91192 0 0 0
256 1 -8.104535 -4.679155 10.91192 0 0 0
257 1 -9.123678 -2.08242 10.91192 0 0 0
258 1 -9.332143 -0.699347 10.91192 0 0 0
280 1 -1.394784 -9.253786 10.91192 0 0 0
281 1 -5.834811 -7.316622 12.124356 0 0 0
282 1 -6.860127 -6.365268 12.124356 0 0 0
283 1 -8.431547 -4.060419 12.124356 0 0 0
284 1 -8.942547 -2.75841 12.124356 0 0 0
307 1 -2.08242 -9.123678 12.124356 0 0 0
308 1 -3.418975 -8.711406 12.124356 0 0 0
309 1 -7.316622 -5.834811 13.336791 0 0 0
310 1 -8.104535 -4.679155 13.336791 0 0 0
311 1 -9.123678 -2.08242 13.336791 0 0 0
312 1 -9.332143 -0.699347 13.336791 0 0 0
334 1 -1.394784 -9.253786 13.336791 0 0 0
335 1 -4.060419 -8.431547 13.336791 0 0 0
336 1 -5.271724 -7.732199 13.336791 0 0 0
337 1 -8.431547 -4.060419 14.549227 0 0 0
338 1 -8.942547 -2.75841 14.549227 0 0 0
361 1 -2.08242 -9.123678 14.549227 0 0 0
362 1 -3.418975 -8.711406 14.549227 0 0 0
363 1 -5.834811 -7.316622 14.549227 0 0 0
364 1 -6.860127 -6.365268 14.549227 0 0 0
365 1 -9.123678 -2.08242 15.761662 0 0 0
366 1 -9.332143 -0.699347 15.761662 0 0 0
388 1 -1.394784 -9.253786 15.761662 0 0 0
389 1 -4.060419 -8.431547 15.761662 0 0 0
390 1 -5.271724 -7.732199 15.761662 0 0 0
391 1 -7.316622 -5.834811 15.761662 0 0 0
392 1 -8.104535 -4.679155 15.761662 0 0 0
415 1 -2.08242 -9.123678 16.974098 0 0 0
416 1 -3.418975 -8.711406 16.974098 0 0 0
417 1 -5.834811 -7.316622 16.974098 0 0 0
418 1 -6.860127 -6.365268 16.974098 0 0 0
419 1 -8.431547 -4.060419 16.974098 0 0 0
420 1 -8.942547 -2.75841 16.974098 0 0 0
442 1 -1.394784 -9.253786 18.186533 0 0 0
443 1 -4.060419 -8.431547 18.186533 0 0 0
444 1 -5.271724 -7.732199 18.186533 0 0 0
445 1 -7.316622 -5.834811 18.186533 0 0 0
446 1 -8.104535 -4.679155 18.186533 0 0 0
447 1 -9.123678 -2.08242 18.186533 0 0 0
448 1 -9.332143 -0.699347 18.186533 0 0 0
469 1 -2.08242 -9.123678 19.398969 0 0 0
470 1 -3.418975 -8.711406 19.398969 0 0 0
471 1 -5.834811 -7.316622 19.398969 0 0 0
472 1 -6.860127 -6.365268 19.398969 0 0 0
473 1 -8.431547 -4.060419 19.398969 0 0 0
474 1 -8.942547 -2.75841 19.398969 0 0 0
496 1 -1.394784 -9.253786 20.611405 0 0 0
497 1 -4.060419 -8.431547 20.611405 0 0 0
498 1 -5.271724 -7.732199 20.611405 0 0 0
499 1 -7.316622 -5.834811 20.611405 0 0 0
500 1 -8.104535 -4.679155 20.611405 0 0 0
501 1 -9.123678 -2.08242 20.611405 0 0 0
502 1 -9.332143 -0.699347 20.611405 0 0 0
523 1 -2.08242 -9.123678 21.82384 0 0 0
524 1 -3.418975 -8.711406 21.82384 0 0 0
525 1 -5.834811 -7.316622 21.82384 0 0 0
526 1 -6.860127 -6.365268 21.82384 0 0 0
527 1 -8.431547 -4.060419 21.82384 0 0 0
528 1 -8.942547 -2.75841 21.82384 0 0 0
550 1 -1.394784 -9.253786 23.036276 0 0 0
551 1 -4.060419 -8.431547 23.036276 0 0 0
552 1 -5.271724 -7.732199 23.036276 0 0 0
553 1 -7.316622 -5.834811 23.036276 0 0 0
554 1 -8.104535 -4.679155 23.036276 0 0 0
555 1 -9.123678 -2.08242 23.036276 0 0 0
556 1 -9.332143 -0.699347 23.036276 0 0 0
577 1 -2.08242 -9.123678 24.248711 0 0 0
578 1 -3.418975 -8.711406 24.248711 0 0 0
579 1 -5.834811 -7.316622 24.248711 0 0 0
580 1 -6.860127 -6.365268 24.248711 0 0 0
581 1 -8.431547 -4.060419 24.248711 0 0 0
582 1 -8.942547 -2.75841 24.248711 0 0 0
604 1 -1.394784 -9.253786 25.461147 0 0 0
605 1 -4.060419 -8.431547 25.461147 0 0 0
606 1 -5.271724 -7.732199 25.461147 0 0 0
607 1 -7.316622 -5.834811 25.461147 0 0 0
608 1 -8.104535 -4.679155 25.461147 0 0 0
609 1 -9.123678 -2.08242 25.461147 0 0 0
610 1 -9.332143 -0.699347 25.461147 0 0 0
631 1 -2.08242 -9.123678 26.673582 0 0 0
632 1 -3.418975 -8.711406 26.673582 0 0 0
633 1 -5.834811 -7.316622 26.673582 0 0 0
634 1 -6.860127 -6.365268 26.673582 0 0 0
635 1 -8.431547 -4.060419 26.673582 0 0 0
636 1 -8.942547 -2.75841 26.673582 0 0 0
658 1 -1.394784 -9.253786 27.886018 0 0 0
659 1 -4.060419 -8.431547 27.886018 0 0 0
660 1 -5.271724 -7.732199 27.886018 0 0 0
661 1 -7.316622 -5.834811 27.886018 0 0 0
662 1 -8.104535 -4.679155 27.886018 0 0 0
663 1 -9.123678 -2.08242 27.886018 0 0 0
664 1 -9.332143 -0.699347 27.886018 0 0 0
685 1 -2.08242 -9.123678 29.098454 0 0 0
686 1 -3.418975 -8.711406 29.098454 0 0 0
687 1 -5.834811 -7.316622 29.098454 0 0 0
688 1 -6.860127 -6.365268 29.098454 0 0 0
689 1 -8.431547 -4.060419 29.098454 0 0 0
690 1 -8.942547 -2.75841 29.098454 0 0 0
712 1 -1.394784 -9.253786 30.310889 0 0 0
713 1 -4.060419 -8.431547 30.310889 0 0 0
714 1 -5.271724 -7.732199 30.310889 0 0 0
715 1 -7.316622 -5.834811 30.310889 0 0 0
716 1 -8.104535 -4.679155 30.310889 0 0 0
717 1 -9.123678 -2.08242 30.310889 0 0 0
718 1 -9.332143 -0.699347 30.310889 0 0 0
739 1 -2.08242 -9.123678 31.523325 0 0 0
740 1 -3.418975 -8.711406 31.523325 0 0 0
741 1 -5.834811 -7.316622 31.523325 0 0 0
742 1 -6.860127 -6.365268 31.523325 0 0 0
743 1 -8.431547 -4.060419 31.523325 0 0 0
744 1 -8.942547 -2.75841 31.523325 0 0 0
766 1 -1.394784 -9.253786 32.73576 0 0 0
767 1 -4.060419 -8.431547 32.73576 0 0 0
768 1 -5.271724 -7.732199 32.73576 0 0 0
769 1 -7.316622 -5.834811 32.73576 0 0 0
770 1 -8.104535 -4.679155 32.73576 0 0 0
771 1 -9.123678 -2.08242 32.73576 0 0 0
772 1 -9.332143 -0.699347 32.73576 0 0 0
793 1 -2.08242 -9.123678 33.948196 0 0 0
794 1 -3.418975 -8.711406 33.948196 0 0 0
795 1 -5.834811 -7.316622 33.948196 0 0 0
796 1 -6.860127 -6.365268 33.948196 0 0 0
797 1 -8.431547 -4.060419 33.948196 0 0 0
798 1 -8.942547 -2.75841 33.948196 0 0 0
820 1 -1.394784 -9.253786 35.160631 0 0 0
821 1 -4.060419 -8.431547 35.160631 0 0 0
822 1 -5.271724 -7.732199 35.160631 0 0 0
823 1 -7.316622 -5.834811 35.160631 0 0 0
824 1 -8.104535 -4.679155 35.160631 0 0 0
825 1 -9.123678 -2.08242 35.160631 0 0 0
826 1 -9.332143 -0.699347 35.160631 0 0 0
847 1 -2.08242 -9.123678 36.373067 0 0 0
848 1 -3.418975 -8.711406 36.373067 0 0 0
849 1 -5.834811 -7.316622 36.373067 0 0 0
850 1 -6.860127 -6.365268 36.373067 0 0 0
851 1 -8.431547 -4.060419 36.373067 0 0 0
852 1 -8.942547 -2.75841 36.373067 0 0 0
874 1 -1.394784 -9.253786 37.585503 0 0 0
875 1 -4.060419 -8.431547 37.585503 0 0 0
876 1 -5.271724 -7.732199 37.585503 0 0 0
877 1 -7.316622 -5.834811 37.585503 0 0 0
878 1 -8.104535 -4.679155 37.585503 0 0 0
879 1 -9.123678 -2.08242 37.585503 0 0 0
880 1 -9.332143 -0.699347 37.585503 0 0 0
901 1 -2.08242 -9.123678 38.797938 0 0 0
902 1 -3.418975 -8.711406 38.797938 0 0 0
903 1 -5.834811 -7.316622 38.797938 0 0 0
904 1 -6.860127 -6.365268 38.797938 0 0 0
905 1 -8.431547 -4.060419 38.797938 0 0 0
906 1 -8.942547 -2.75841 38.797938 0 0 0
928 1 -1.394784 -9.253786 40.010374 0 0 0
929 1 -4.060419 -8.431547 40.010374 0 0 0
930 1 -5.271724 -7.732199 40.010374 0 0 0
931 1 -7.316622 -5.834811 40.010374 0 0 0
932 1 -8.104535 -4.679155 40.010374 0 0 0
933 1 -9.123678 -2.08242 40.010374 0 0 0
934 1 -9.332143 -0.699347 40.010374 0 0 0
955 1 -2.08242 -9.123678 41.222809 0 0 0
956 1 -3.418975 -8.711406 41.222809 0 0 0
957 1 -5.834811 -7.316622 41.222809 0 0 0
958 1 -6.860127 -6.365268 41.222809 0 0 0
959 1 -8.431547 -4.060419 41.222809 0 0 0
960 1 -8.942547 -2.75841 41.222809 0 0 0
982 1 -1.394784 -9.253786 42.435245 0 0 0
983 1 -4.060419 -8.431547 42.435245 0 0 0
984 1 -5.271724 -7.732199 42.435245 0 0 0
985 1 -7.316622 -5.834811 42.435245 0 0 0
986 1 -8.104535 -4.679155 42.435245 0 0 0
987 1 -9.123678 -2.08242 42.435245 0 0 0
988 1 -9.332143 -0.699347 42.435245 0 0 0
1009 1 -2.08242 -9.123678 43.64768 0 0 0
1010 1 -3.418975 -8.711406 43.64768 0 0 0
1011 1 -5.834811 -7.316622 43.64768 0 0 0
1012 1 -6.860127 -6.365268 43.64768 0 0 0
1013 1 -8.431547 -4.060419 43.64768 0 0 0
1014 1 -8.942547 -2.75841 43.64768 0 0 0
1037 1 -4.060419 -8.431547 44.860116 0 0 0
1038 1 -5.271724 -7.732199 44.860116 0 0 0
1039 1 -7.316622 -5.834811 44.860116 0 0 0
1040 1 -8.104535 -4.679155 44.860116 0 0 0
1041 1 -9.123678 -2.08242 44.860116 0 0 0
1042 1 -9.332143 -0.699347 44.860116 0 0 0
1064 1 -1.394784 -9.253786 44.860116 0 0 0
1065 1 -5.834811 -7.316622 46.072551 0 0 0
1066 1 -6.860127 -6.365268 46.072551 0 0 0
1067 1 -8.431547 -4.060419 46.072551 0 0 0
1068 1 -8.942547 -2.75841 46.072551 0 0 0
1091 1 -2.08242 -9.123678 46.072551 0 0 0
1092 1 -3.418975 -8.711406 46.072551 0 0 0
1093 1 -7.316622 -5.834811 -1.2124359999999967 0 0 1
1094 1 -8.104535 -4.679155 -1.2124359999999967 0 0 1
1095 1 -9.123678 -2.08242 -1.2124359999999967 0 0 1
1096 1 -9.332143 -0.699347 -1.2124359999999967 0 0 1
1118 1 -1.394784 -9.253786 -1.2124359999999967 0 0 1
1119 1 -4.060419 -8.431547 -1.2124359999999967 0 0 1
1120 1 -5.271724 -7.732199 -1.2124359999999967 0 0 1
1123 2 -1.719138 -0.315585 3.176333 0 0 0
1137 2 -5.088038 -0.828285 2.603933 0 0 0
1139 2 -3.842638 -1.030985 3.182233 0 0 0
1145 2 -3.488538 -2.919085 1.744933 0 0 0
1146 2 -4.740738 -2.718185 1.172133 0 0 0
1147 2 -3.037038 -2.074185 2.753733 0 0 0
1148 2 -5.546338 -1.670785 1.602633 0 0 0
1149 2 -6.257938 -0.919885 0.678533 0 0 0
1150 2 -4.652038 -3.011885 -0.181267 0 0 0
1151 2 -5.351938 -2.249685 -1.108567 0 0 0
1152 2 -6.162038 -1.200685 -0.679367 0 0 0
1153 2 -0.861338 -2.061085 1.744233 0 0 0
1154 2 -1.308238 -2.906685 0.737733 0 0 0
1155 2 -1.719238 -1.642385 2.751933 0 0 0
1156 2 -2.629938 -3.338485 0.738633 0 0 0
1157 2 -3.341738 -3.396185 -0.450967 0 0 0
1158 2 -0.708838 -2.530785 -0.455567 0 0 0
1159 2 -1.418738 -2.577585 -1.649567 0 0 0
1160 2 -2.741738 -3.011185 -1.644667 0 0 0
1161 2 -5.180538 -0.584085 45.907956 0 0 -1
1162 2 -4.745738 -1.875185 -2.299867 0 0 0
1163 2 -3.436238 -2.252685 45.921355999999996 0 0 -1
1167 2 -6.063338 -0.168685 -1.602267 0 0 0
1177 2 -2.551638 -1.355285 45.339755999999994 0 0 -1
1178 2 -1.299438 -1.554285 45.915056 0 0 -1
1179 2 -0.479338 -0.468085 -2.308667 0 0 0
1180 2 -2.975938 -0.070285 45.047356 0 0 -1
1209 3 -0.257938 -0.919885 8.674033 0 0 0
1212 3 -0.162038 -1.200685 7.316133 0 0 0
1227 3 -0.063338 -0.168685 6.393233 0 0 0
1243 2 -1.719138 -0.315585 19.167332 0 0 0
1257 2 -5.088038 -0.828285 18.594932 0 0 0
1259 2 -3.842638 -1.030985 19.173232 0 0 0
1265 2 -3.488538 -2.919085 17.735932 0 0 0
1266 2 -4.740738 -2.718185 17.163132 0 0 0
1267 2 -3.037038 -2.074185 18.744732 0 0 0
1268 2 -5.546338 -1.670785 17.593632 0 0 0
1269 2 -6.257938 -0.919885 16.669532 0 0 0
1270 2 -4.652038 -3.011885 15.809732 0 0 0
1271 2 -5.351938 -2.249685 14.882432 0 0 0
1272 2 -6.162038 -1.200685 15.311632 0 0 0
1273 2 -0.861338 -2.061085 17.735232 0 0 0
1274 2 -1.308238 -2.906685 16.728732 0 0 0
1275 2 -1.719238 -1.642385 18.742932 0 0 0
1276 2 -2.629938 -3.338485 16.729632 0 0 0
1277 2 -3.341738 -3.396185 15.540032 0 0 0
1278 2 -0.708838 -2.530785 15.535432 0 0 0
1279 2 -1.418738 -2.577585 14.341432 0 0 0
1280 2 -2.741738 -3.011185 14.346332 0 0 0
1281 2 -5.180538 -0.584085 13.401532 0 0 0
1282 2 -4.745738 -1.875185 13.691132 0 0 0
1283 2 -3.436238 -2.252685 13.414932 0 0 0
1287 2 -6.063338 -0.168685 14.388732 0 0 0
1297 2 -2.551638 -1.355285 12.833332 0 0 0
1298 2 -1.299438 -1.554285 13.408632 0 0 0
1299 2 -0.479338 -0.468085 13.682332 0 0 0
1300 2 -2.975938 -0.070285 12.540932 0 0 0
1329 3 -0.257938 -0.919885 24.665032 0 0 0
1332 3 -0.162038 -1.200685 23.307132 0 0 0
1347 3 -0.063338 -0.168685 22.384232 0 0 0
1363 2 -1.719138 -0.315585 35.158332 0 0 0
1377 2 -5.088038 -0.828285 34.585932 0 0 0
1379 2 -3.842638 -1.030985 35.164232 0 0 0
1385 2 -3.488538 -2.919085 33.726932 0 0 0
1386 2 -4.740738 -2.718185 33.154132 0 0 0
1387 2 -3.037038 -2.074185 34.735732 0 0 0
1388 2 -5.546338 -1.670785 33.584632 0 0 0
1389 2 -6.257938 -0.919885 32.660532 0 0 0
1390 2 -4.652038 -3.011885 31.800732 0 0 0
1391 2 -5.351938 -2.249685 30.873432 0 0 0
1392 2 -6.162038 -1.200685 31.302632 0 0 0
1393 2 -0.861338 -2.061085 33.726232 0 0 0
1394 2 -1.308238 -2.906685 32.719732 0 0 0
1395 2 -1.719238 -1.642385 34.733932 0 0 0
1396 2 -2.629938 -3.338485 32.720632 0 0 0
1397 2 -3.341738 -3.396185 31.531032 0 0 0
1398 2 -0.708838 -2.530785 31.526432 0 0 0
1399 2 -1.418738 -2.577585 30.332432 0 0 0
1400 2 -2.741738 -3.011185 30.337332 0 0 0
1401 2 -5.180538 -0.584085 29.392532 0 0 0
1402 2 -4.745738 -1.875185 29.682132 0 0 0
1403 2 -3.436238 -2.252685 29.405932 0 0 0
1407 2 -6.063338 -0.168685 30.379732 0 0 0
1417 2 -2.551638 -1.355285 28.824332 0 0 0
1418 2 -1.299438 -1.554285 29.399632 0 0 0
1419 2 -0.479338 -0.468085 29.673332 0 0 0
1420 2 -2.975938 -0.070285 28.531932 0 0 0
1449 3 -0.257938 -0.919885 40.656031 0 0 0
1452 3 -0.162038 -1.200685 39.298131 0 0 0
1467 3 -0.063338 -0.168685 38.375231 0 0 0
15 1 -9.358311 0 0 0 0 0
16 1 -9.253786 1.394784 0 0 0 0
17 1 -8.431547 4.060419 0 0 0 0
18 1 -7.732199 5.271724 0 0 0 0
19 1 -5.834811 7.316622 0 0 0 0
20 1 -4.679155 8.104535 0 0 0 0
21 1 -2.08242 9.123678 0 0 0 0
22 1 -0.699347 9.332143 0 0 0 0
43 1 -9.123678 2.08242 1.212436 0 0 0
44 1 -8.711406 3.418975 1.212436 0 0 0
45 1 -7.316622 5.834811 1.212436 0 0 0
46 1 -6.365268 6.860127 1.212436 0 0 0
47 1 -4.060419 8.431547 1.212436 0 0 0
48 1 -2.75841 8.942547 1.212436 0 0 0
69 1 -9.358311 0 2.424871 0 0 0
70 1 -9.253786 1.394784 2.424871 0 0 0
71 1 -8.431547 4.060419 2.424871 0 0 0
72 1 -7.732199 5.271724 2.424871 0 0 0
73 1 -5.834811 7.316622 2.424871 0 0 0
74 1 -4.679155 8.104535 2.424871 0 0 0
75 1 -2.08242 9.123678 2.424871 0 0 0
76 1 -0.699347 9.332143 2.424871 0 0 0
97 1 -9.123678 2.08242 3.637307 0 0 0
98 1 -8.711406 3.418975 3.637307 0 0 0
99 1 -7.316622 5.834811 3.637307 0 0 0
100 1 -6.365268 6.860127 3.637307 0 0 0
101 1 -4.060419 8.431547 3.637307 0 0 0
102 1 -2.75841 8.942547 3.637307 0 0 0
123 1 -9.358311 0 4.849742 0 0 0
124 1 -9.253786 1.394784 4.849742 0 0 0
125 1 -8.431547 4.060419 4.849742 0 0 0
126 1 -7.732199 5.271724 4.849742 0 0 0
127 1 -5.834811 7.316622 4.849742 0 0 0
128 1 -4.679155 8.104535 4.849742 0 0 0
129 1 -2.08242 9.123678 4.849742 0 0 0
130 1 -0.699347 9.332143 4.849742 0 0 0
151 1 -9.123678 2.08242 6.062178 0 0 0
152 1 -8.711406 3.418975 6.062178 0 0 0
153 1 -7.316622 5.834811 6.062178 0 0 0
154 1 -6.365268 6.860127 6.062178 0 0 0
155 1 -4.060419 8.431547 6.062178 0 0 0
156 1 -2.75841 8.942547 6.062178 0 0 0
177 1 -9.358311 0 7.274613 0 0 0
178 1 -9.253786 1.394784 7.274613 0 0 0
179 1 -8.431547 4.060419 7.274613 0 0 0
180 1 -7.732199 5.271724 7.274613 0 0 0
181 1 -5.834811 7.316622 7.274613 0 0 0
182 1 -4.679155 8.104535 7.274613 0 0 0
183 1 -2.08242 9.123678 7.274613 0 0 0
184 1 -0.699347 9.332143 7.274613 0 0 0
205 1 -9.123678 2.08242 8.487049 0 0 0
206 1 -8.711406 3.418975 8.487049 0 0 0
207 1 -7.316622 5.834811 8.487049 0 0 0
208 1 -6.365268 6.860127 8.487049 0 0 0
209 1 -4.060419 8.431547 8.487049 0 0 0
210 1 -2.75841 8.942547 8.487049 0 0 0
231 1 -9.358311 0 9.699485 0 0 0
232 1 -9.253786 1.394784 9.699485 0 0 0
233 1 -8.431547 4.060419 9.699485 0 0 0
234 1 -7.732199 5.271724 9.699485 0 0 0
235 1 -5.834811 7.316622 9.699485 0 0 0
236 1 -4.679155 8.104535 9.699485 0 0 0
237 1 -2.08242 9.123678 9.699485 0 0 0
238 1 -0.699347 9.332143 9.699485 0 0 0
259 1 -9.123678 2.08242 10.91192 0 0 0
260 1 -8.711406 3.418975 10.91192 0 0 0
261 1 -7.316622 5.834811 10.91192 0 0 0
262 1 -6.365268 6.860127 10.91192 0 0 0
263 1 -4.060419 8.431547 10.91192 0 0 0
264 1 -2.75841 8.942547 10.91192 0 0 0
285 1 -9.358311 0 12.124356 0 0 0
286 1 -9.253786 1.394784 12.124356 0 0 0
287 1 -8.431547 4.060419 12.124356 0 0 0
288 1 -7.732199 5.271724 12.124356 0 0 0
289 1 -5.834811 7.316622 12.124356 0 0 0
290 1 -4.679155 8.104535 12.124356 0 0 0
291 1 -2.08242 9.123678 12.124356 0 0 0
292 1 -0.699347 9.332143 12.124356 0 0 0
313 1 -9.123678 2.08242 13.336791 0 0 0
314 1 -8.711406 3.418975 13.336791 0 0 0
315 1 -7.316622 5.834811 13.336791 0 0 0
316 1 -6.365268 6.860127 13.336791 0 0 0
317 1 -4.060419 8.431547 13.336791 0 0 0
318 1 -2.75841 8.942547 13.336791 0 0 0
339 1 -9.358311 0 14.549227 0 0 0
340 1 -9.253786 1.394784 14.549227 0 0 0
341 1 -8.431547 4.060419 14.549227 0 0 0
342 1 -7.732199 5.271724 14.549227 0 0 0
343 1 -5.834811 7.316622 14.549227 0 0 0
344 1 -4.679155 8.104535 14.549227 0 0 0
345 1 -2.08242 9.123678 14.549227 0 0 0
346 1 -0.699347 9.332143 14.549227 0 0 0
367 1 -9.123678 2.08242 15.761662 0 0 0
368 1 -8.711406 3.418975 15.761662 0 0 0
369 1 -7.316622 5.834811 15.761662 0 0 0
370 1 -6.365268 6.860127 15.761662 0 0 0
371 1 -4.060419 8.431547 15.761662 0 0 0
372 1 -2.75841 8.942547 15.761662 0 0 0
393 1 -9.358311 0 16.974098 0 0 0
394 1 -9.253786 1.394784 16.974098 0 0 0
395 1 -8.431547 4.060419 16.974098 0 0 0
396 1 -7.732199 5.271724 16.974098 0 0 0
397 1 -5.834811 7.316622 16.974098 0 0 0
398 1 -4.679155 8.104535 16.974098 0 0 0
399 1 -2.08242 9.123678 16.974098 0 0 0
400 1 -0.699347 9.332143 16.974098 0 0 0
421 1 -9.123678 2.08242 18.186533 0 0 0
422 1 -8.711406 3.418975 18.186533 0 0 0
423 1 -7.316622 5.834811 18.186533 0 0 0
424 1 -6.365268 6.860127 18.186533 0 0 0
425 1 -4.060419 8.431547 18.186533 0 0 0
426 1 -2.75841 8.942547 18.186533 0 0 0
449 1 -8.431547 4.060419 19.398969 0 0 0
450 1 -7.732199 5.271724 19.398969 0 0 0
451 1 -5.834811 7.316622 19.398969 0 0 0
452 1 -4.679155 8.104535 19.398969 0 0 0
453 1 -2.08242 9.123678 19.398969 0 0 0
454 1 -0.699347 9.332143 19.398969 0 0 0
475 1 -9.358311 0 19.398969 0 0 0
476 1 -9.253786 1.394784 19.398969 0 0 0
477 1 -7.316622 5.834811 20.611405 0 0 0
478 1 -6.365268 6.860127 20.611405 0 0 0
479 1 -4.060419 8.431547 20.611405 0 0 0
480 1 -2.75841 8.942547 20.611405 0 0 0
503 1 -9.123678 2.08242 20.611405 0 0 0
504 1 -8.711406 3.418975 20.611405 0 0 0
505 1 -5.834811 7.316622 21.82384 0 0 0
506 1 -4.679155 8.104535 21.82384 0 0 0
507 1 -2.08242 9.123678 21.82384 0 0 0
508 1 -0.699347 9.332143 21.82384 0 0 0
529 1 -9.358311 0 21.82384 0 0 0
530 1 -9.253786 1.394784 21.82384 0 0 0
531 1 -8.431547 4.060419 21.82384 0 0 0
532 1 -7.732199 5.271724 21.82384 0 0 0
533 1 -4.060419 8.431547 23.036276 0 0 0
534 1 -2.75841 8.942547 23.036276 0 0 0
557 1 -9.123678 2.08242 23.036276 0 0 0
558 1 -8.711406 3.418975 23.036276 0 0 0
559 1 -7.316622 5.834811 23.036276 0 0 0
560 1 -6.365268 6.860127 23.036276 0 0 0
561 1 -2.08242 9.123678 24.248711 0 0 0
562 1 -0.699347 9.332143 24.248711 0 0 0
583 1 -9.358311 0 24.248711 0 0 0
584 1 -9.253786 1.394784 24.248711 0 0 0
585 1 -8.431547 4.060419 24.248711 0 0 0
586 1 -7.732199 5.271724 24.248711 0 0 0
587 1 -5.834811 7.316622 24.248711 0 0 0
588 1 -4.679155 8.104535 24.248711 0 0 0
611 1 -9.123678 2.08242 25.461147 0 0 0
612 1 -8.711406 3.418975 25.461147 0 0 0
613 1 -7.316622 5.834811 25.461147 0 0 0
614 1 -6.365268 6.860127 25.461147 0 0 0
615 1 -4.060419 8.431547 25.461147 0 0 0
616 1 -2.75841 8.942547 25.461147 0 0 0
637 1 -9.358311 0 26.673582 0 0 0
638 1 -9.253786 1.394784 26.673582 0 0 0
639 1 -8.431547 4.060419 26.673582 0 0 0
640 1 -7.732199 5.271724 26.673582 0 0 0
641 1 -5.834811 7.316622 26.673582 0 0 0
642 1 -4.679155 8.104535 26.673582 0 0 0
643 1 -2.08242 9.123678 26.673582 0 0 0
644 1 -0.699347 9.332143 26.673582 0 0 0
665 1 -9.123678 2.08242 27.886018 0 0 0
666 1 -8.711406 3.418975 27.886018 0 0 0
667 1 -7.316622 5.834811 27.886018 0 0 0
668 1 -6.365268 6.860127 27.886018 0 0 0
669 1 -4.060419 8.431547 27.886018 0 0 0
670 1 -2.75841 8.942547 27.886018 0 0 0
691 1 -9.358311 0 29.098454 0 0 0
692 1 -9.253786 1.394784 29.098454 0 0 0
693 1 -8.431547 4.060419 29.098454 0 0 0
694 1 -7.732199 5.271724 29.098454 0 0 0
695 1 -5.834811 7.316622 29.098454 0 0 0
696 1 -4.679155 8.104535 29.098454 0 0 0
697 1 -2.08242 9.123678 29.098454 0 0 0
698 1 -0.699347 9.332143 29.098454 0 0 0
719 1 -9.123678 2.08242 30.310889 0 0 0
720 1 -8.711406 3.418975 30.310889 0 0 0
721 1 -7.316622 5.834811 30.310889 0 0 0
722 1 -6.365268 6.860127 30.310889 0 0 0
723 1 -4.060419 8.431547 30.310889 0 0 0
724 1 -2.75841 8.942547 30.310889 0 0 0
745 1 -9.358311 0 31.523325 0 0 0
746 1 -9.253786 1.394784 31.523325 0 0 0
747 1 -8.431547 4.060419 31.523325 0 0 0
748 1 -7.732199 5.271724 31.523325 0 0 0
749 1 -5.834811 7.316622 31.523325 0 0 0
750 1 -4.679155 8.104535 31.523325 0 0 0
751 1 -2.08242 9.123678 31.523325 0 0 0
752 1 -0.699347 9.332143 31.523325 0 0 0
773 1 -9.123678 2.08242 32.73576 0 0 0
774 1 -8.711406 3.418975 32.73576 0 0 0
775 1 -7.316622 5.834811 32.73576 0 0 0
776 1 -6.365268 6.860127 32.73576 0 0 0
777 1 -4.060419 8.431547 32.73576 0 0 0
778 1 -2.75841 8.942547 32.73576 0 0 0
799 1 -9.358311 0 33.948196 0 0 0
800 1 -9.253786 1.394784 33.948196 0 0 0
801 1 -8.431547 4.060419 33.948196 0 0 0
802 1 -7.732199 5.271724 33.948196 0 0 0
803 1 -5.834811 7.316622 33.948196 0 0 0
804 1 -4.679155 8.104535 33.948196 0 0 0
805 1 -2.08242 9.123678 33.948196 0 0 0
806 1 -0.699347 9.332143 33.948196 0 0 0
827 1 -9.123678 2.08242 35.160631 0 0 0
828 1 -8.711406 3.418975 35.160631 0 0 0
829 1 -7.316622 5.834811 35.160631 0 0 0
830 1 -6.365268 6.860127 35.160631 0 0 0
831 1 -4.060419 8.431547 35.160631 0 0 0
832 1 -2.75841 8.942547 35.160631 0 0 0
853 1 -9.358311 0 36.373067 0 0 0
854 1 -9.253786 1.394784 36.373067 0 0 0
855 1 -8.431547 4.060419 36.373067 0 0 0
856 1 -7.732199 5.271724 36.373067 0 0 0
857 1 -5.834811 7.316622 36.373067 0 0 0
858 1 -4.679155 8.104535 36.373067 0 0 0
859 1 -2.08242 9.123678 36.373067 0 0 0
860 1 -0.699347 9.332143 36.373067 0 0 0
881 1 -9.123678 2.08242 37.585503 0 0 0
882 1 -8.711406 3.418975 37.585503 0 0 0
883 1 -7.316622 5.834811 37.585503 0 0 0
884 1 -6.365268 6.860127 37.585503 0 0 0
885 1 -4.060419 8.431547 37.585503 0 0 0
886 1 -2.75841 8.942547 37.585503 0 0 0
907 1 -9.358311 0 38.797938 0 0 0
908 1 -9.253786 1.394784 38.797938 0 0 0
909 1 -8.431547 4.060419 38.797938 0 0 0
910 1 -7.732199 5.271724 38.797938 0 0 0
911 1 -5.834811 7.316622 38.797938 0 0 0
912 1 -4.679155 8.104535 38.797938 0 0 0
913 1 -2.08242 9.123678 38.797938 0 0 0
914 1 -0.699347 9.332143 38.797938 0 0 0
935 1 -9.123678 2.08242 40.010374 0 0 0
936 1 -8.711406 3.418975 40.010374 0 0 0
937 1 -7.316622 5.834811 40.010374 0 0 0
938 1 -6.365268 6.860127 40.010374 0 0 0
939 1 -4.060419 8.431547 40.010374 0 0 0
940 1 -2.75841 8.942547 40.010374 0 0 0
961 1 -9.358311 0 41.222809 0 0 0
962 1 -9.253786 1.394784 41.222809 0 0 0
963 1 -8.431547 4.060419 41.222809 0 0 0
964 1 -7.732199 5.271724 41.222809 0 0 0
965 1 -5.834811 7.316622 41.222809 0 0 0
966 1 -4.679155 8.104535 41.222809 0 0 0
967 1 -2.08242 9.123678 41.222809 0 0 0
968 1 -0.699347 9.332143 41.222809 0 0 0
989 1 -9.123678 2.08242 42.435245 0 0 0
990 1 -8.711406 3.418975 42.435245 0 0 0
991 1 -7.316622 5.834811 42.435245 0 0 0
992 1 -6.365268 6.860127 42.435245 0 0 0
993 1 -4.060419 8.431547 42.435245 0 0 0
994 1 -2.75841 8.942547 42.435245 0 0 0
1015 1 -9.358311 0 43.64768 0 0 0
1016 1 -9.253786 1.394784 43.64768 0 0 0
1017 1 -8.431547 4.060419 43.64768 0 0 0
1018 1 -7.732199 5.271724 43.64768 0 0 0
1019 1 -5.834811 7.316622 43.64768 0 0 0
1020 1 -4.679155 8.104535 43.64768 0 0 0
1021 1 -2.08242 9.123678 43.64768 0 0 0
1022 1 -0.699347 9.332143 43.64768 0 0 0
1043 1 -9.123678 2.08242 44.860116 0 0 0
1044 1 -8.711406 3.418975 44.860116 0 0 0
1045 1 -7.316622 5.834811 44.860116 0 0 0
1046 1 -6.365268 6.860127 44.860116 0 0 0
1047 1 -4.060419 8.431547 44.860116 0 0 0
1048 1 -2.75841 8.942547 44.860116 0 0 0
1069 1 -9.358311 0 46.072551 0 0 0
1070 1 -9.253786 1.394784 46.072551 0 0 0
1071 1 -8.431547 4.060419 46.072551 0 0 0
1072 1 -7.732199 5.271724 46.072551 0 0 0
1073 1 -5.834811 7.316622 46.072551 0 0 0
1074 1 -4.679155 8.104535 46.072551 0 0 0
1075 1 -2.08242 9.123678 46.072551 0 0 0
1076 1 -0.699347 9.332143 46.072551 0 0 0
1097 1 -9.123678 2.08242 -1.2124359999999967 0 0 1
1098 1 -8.711406 3.418975 -1.2124359999999967 0 0 1
1099 1 -7.316622 5.834811 -1.2124359999999967 0 0 1
1100 1 -6.365268 6.860127 -1.2124359999999967 0 0 1
1101 1 -4.060419 8.431547 -1.2124359999999967 0 0 1
1102 1 -2.75841 8.942547 -1.2124359999999967 0 0 1
1121 2 -0.831238 0.584815 2.595833 0 0 0
1129 2 -3.437038 1.346915 3.135533 0 0 0
1130 2 -2.561438 2.256015 2.562633 0 0 0
1131 2 -3.027338 0.057515 3.446333 0 0 0
1132 2 -1.253538 1.873215 2.291433 0 0 0
1133 2 -0.645838 2.261815 1.107433 0 0 0
1134 2 -3.261038 3.021015 1.641033 0 0 0
1135 2 -2.660338 3.399615 0.445733 0 0 0
1136 2 -1.346138 3.022015 0.179133 0 0 0
1138 2 -5.508838 0.460615 2.293833 0 0 0
1140 2 -4.685138 1.547515 2.559633 0 0 0
1141 2 -4.582038 2.580015 1.640333 0 0 0
1142 2 -6.229138 0.400315 1.109133 0 0 0
1143 2 -6.120438 1.435215 0.183033 0 0 0
1144 2 -5.292438 2.523315 0.448333 0 0 0
1164 2 -4.279238 0.313115 45.338756 0 0 -1
1165 2 -5.150338 2.048715 -1.729367 0 0 0
1166 2 -6.046238 1.147715 -1.172667 0 0 0
1168 2 -4.263838 1.634915 45.778756 0 0 -1
1169 2 -2.493838 2.930315 -1.733367 0 0 0
1170 2 -3.376538 3.350315 -0.742867 0 0 0
1171 2 -4.692038 2.912815 -0.740667 0 0 0
1172 2 -2.945638 2.067215 45.770356 0 0 -1
1173 2 -0.900138 0.828215 45.900756 0 0 -1
1174 2 -0.446038 1.686515 -1.602267 0 0 0
1175 2 -1.238838 2.739415 -1.173967 0 0 0
1176 2 -2.155738 1.014815 45.327256 0 0 -1
1202 3 -0.229138 0.400315 9.104633 0 0 0
1203 3 -0.120438 1.435215 8.178533 0 0 0
1226 3 -0.046238 1.147715 6.822833 0 0 0
1241 2 -0.831238 0.584815 18.586832 0 0 0
1249 2 -3.437038 1.346915 19.126532 0 0 0
1250 2 -2.561438 2.256015 18.553632 0 0 0
1251 2 -3.027338 0.057515 19.437332 0 0 0
1252 2 -1.253538 1.873215 18.282432 0 0 0
1253 2 -0.645838 2.261815 17.098432 0 0 0
1254 2 -3.261038 3.021015 17.632032 0 0 0
1255 2 -2.660338 3.399615 16.436732 0 0 0
1256 2 -1.346138 3.022015 16.170132 0 0 0
1258 2 -5.508838 0.460615 18.284832 0 0 0
1260 2 -4.685138 1.547515 18.550632 0 0 0
1261 2 -4.582038 2.580015 17.631332 0 0 0
1262 2 -6.229138 0.400315 17.100132 0 0 0
1263 2 -6.120438 1.435215 16.174032 0 0 0
1264 2 -5.292438 2.523315 16.439332 0 0 0
1284 2 -4.279238 0.313115 12.832332 0 0 0
1285 2 -5.150338 2.048715 14.261632 0 0 0
1286 2 -6.046238 1.147715 14.818332 0 0 0
1288 2 -4.263838 1.634915 13.272332 0 0 0
1289 2 -2.493838 2.930315 14.257632 0 0 0
1290 2 -3.376538 3.350315 15.248132 0 0 0
1291 2 -4.692038 2.912815 15.250332 0 0 0
1292 2 -2.945638 2.067215 13.263932 0 0 0
1293 2 -0.900138 0.828215 13.394332 0 0 0
1294 2 -0.446038 1.686515 14.388732 0 0 0
1295 2 -1.238838 2.739415 14.817032 0 0 0
1296 2 -2.155738 1.014815 12.820832 0 0 0
1322 3 -0.229138 0.400315 25.095632 0 0 0
1323 3 -0.120438 1.435215 24.169532 0 0 0
1346 3 -0.046238 1.147715 22.813832 0 0 0
1361 2 -0.831238 0.584815 34.577832 0 0 0
1369 2 -3.437038 1.346915 35.117532 0 0 0
1370 2 -2.561438 2.256015 34.544632 0 0 0
1371 2 -3.027338 0.057515 35.428332 0 0 0
1372 2 -1.253538 1.873215 34.273432 0 0 0
1373 2 -0.645838 2.261815 33.089432 0 0 0
1374 2 -3.261038 3.021015 33.623032 0 0 0
1375 2 -2.660338 3.399615 32.427732 0 0 0
1376 2 -1.346138 3.022015 32.161132 0 0 0
1378 2 -5.508838 0.460615 34.275832 0 0 0
1380 2 -4.685138 1.547515 34.541632 0 0 0
1381 2 -4.582038 2.580015 33.622332 0 0 0
1382 2 -6.229138 0.400315 33.091132 0 0 0
1383 2 -6.120438 1.435215 32.165032 0 0 0
1384 2 -5.292438 2.523315 32.430332 0 0 0
1404 2 -4.279238 0.313115 28.823332 0 0 0
1405 2 -5.150338 2.048715 30.252632 0 0 0
1406 2 -6.046238 1.147715 30.809332 0 0 0
1408 2 -4.263838 1.634915 29.263332 0 0 0
1409 2 -2.493838 2.930315 30.248632 0 0 0
1410 2 -3.376538 3.350315 31.239132 0 0 0
1411 2 -4.692038 2.912815 31.241332 0 0 0
1412 2 -2.945638 2.067215 29.254932 0 0 0
1413 2 -0.900138 0.828215 29.385332 0 0 0
1414 2 -0.446038 1.686515 30.379732 0 0 0
1415 2 -1.238838 2.739415 30.808032 0 0 0
1416 2 -2.155738 1.014815 28.811832 0 0 0
1442 3 -0.229138 0.400315 41.086631 0 0 0
1443 3 -0.120438 1.435215 40.160531 0 0 0
1466 3 -0.046238 1.147715 38.804831 0 0 0
2 1 9.253786 -1.394784 0 0 0 0
3 1 8.431547 -4.060419 0 0 0 0
4 1 7.732199 -5.271724 0 0 0 0
5 1 5.834811 -7.316622 0 0 0 0