LAMMPS (2 Aug 2023 - Update 3)
OMP_NUM_THREADS environment is not set. Defaulting to 1 thread. (src/comm.cpp:98)
  using 1 OpenMP thread(s) per MPI task

# 1------general---------------
units                             metal      #单位为lammps 中的metel 类型
dimension                    3          #模拟的维度 三维
boundary                    p p p      #周期边界条件
atom_style                  atomic   #原子类型自动
atom_modify              map array sort 100 2.0
neighbor                    3.0 bin
neigh_modify            every 1 delay 0 check yes
#2 -----global variable-------定义全局变量，方便统一修改；
variable temperature equal 300
variable tstep equal 0.001
variable pressure equal 0
variable thermalstep equal 100
variable dumpstep equal 1000
variable relaxtime equal 0
variable totaltime equal 100000
variable deformrate equal 5e-3
#3 -------model------------
#box tilt large
read_data     1.lmp
Reading data file ...
  orthogonal box = (-100 -100 -2.3312511) to (100 100 38.891558)
  3 by 4 by 1 MPI processor grid
  reading atoms ...
  784 atoms
  read_data CPU = 0.047 seconds
replicate 1 1 9
Replication is creating a 1x1x9 = 9 times larger system...
  orthogonal box = (-100 -100 -2.3312511) to (100 100 368.67403)
  2 by 2 by 3 MPI processor grid
  7056 atoms
  replicate CPU = 0.092 seconds
write_data l.data
System init for write_data ...
WARNING: Communication cutoff is 0.0. No ghost atoms will be generated. Atoms may get lost. (src/comm_brick.cpp:210)

pair_style hybrid airebo 3.0 airebo 3.0  lj/cut 10
pair_coeff * * airebo 1 CH.airebo C NULL
Reading airebo potential file CH.airebo with DATE: 2011-10-25
pair_coeff * * airebo 2 CH.airebo NULL C
Reading airebo potential file CH.airebo with DATE: 2011-10-25
pair_coeff 1 2 lj/cut 0.00456 3.431

# 5------minimize -----------
min_style      sd
minimize       1.0e-4 1.0e-6 100 1000
Neighbor list info ...
  update: every = 1 steps, delay = 0 steps, check = yes
  max neighbors/atom: 2000, page size: 100000
  master list distance cutoff = 13.2
  ghost atom cutoff = 13.2
  binsize = 6.6, bins = 31 31 57
  5 neighbor lists, perpetual/occasional/extra = 5 0 0
  (1) pair airebo, perpetual, skip from (4)
      attributes: full, newton on, ghost
      pair build: skip/ghost
      stencil: none
      bin: none
  (2) pair airebo, perpetual, skip from (4)
      attributes: full, newton on, ghost
      pair build: skip/ghost
      stencil: none
      bin: none
  (3) pair lj/cut, perpetual, skip from (5)
      attributes: half, newton on, cut 13
      pair build: skip
      stencil: none
      bin: none
  (4) neighbor class addition, perpetual
      attributes: full, newton on, ghost
      pair build: full/bin/ghost
      stencil: full/ghost/bin/3d
      bin: standard
  (5) neighbor class addition, perpetual
      attributes: half, newton on, cut 13
      pair build: half/bin/atomonly/newton
      stencil: half/bin/3d
      bin: standard
Per MPI rank memory allocation (min/avg/max) = 10.58 | 10.58 | 10.58 Mbytes
   Step          Temp          E_pair         E_mol          TotEng         Press     
         0   0             -37471.922      0             -37471.922      6493.3023    
        22   0             -49844.297      0             -49844.297      191.11314    
Loop time of 2.76933 on 12 procs for 22 steps with 7056 atoms

74.2% CPU use with 12 MPI tasks x 1 OpenMP threads

Minimization stats:
  Stopping criterion = energy tolerance
  Energy initial, next-to-last, final = 
     -37471.9220765941  -49840.4442155292  -49844.2973496603
  Force two-norm initial, final = 3029.1808 26.363132
  Force max component initial, final = 135.10344 1.8602613
  Final line search alpha, max atom move = 0.048367349 0.089975905
  Iterations, force evaluations = 22 39

MPI task timing breakdown:
Section |  min time  |  avg time  |  max time  |%varavg| %total
---------------------------------------------------------------
Pair    | 0.36031    | 0.39557    | 0.47312    |   5.8 | 14.28
Neigh   | 0          | 0          | 0          |   0.0 |  0.00
Comm    | 0.72071    | 0.82616    | 0.95807    |   7.9 | 29.83
Output  | 0          | 0          | 0          |   0.0 |  0.00
Modify  | 0          | 0          | 0          |   0.0 |  0.00
Other   |            | 1.548      |            |       | 55.88

Nlocal:            588 ave         639 max         537 min
Histogram: 3 0 0 0 0 6 0 0 0 3
Nghost:           2254 ave        2305 max        2203 min
Histogram: 3 0 0 0 0 6 0 0 0 3
Neighs:              0 ave           0 max           0 min
Histogram: 12 0 0 0 0 0 0 0 0 0

Total # of neighbors = 0
Ave neighs/atom = 0
Neighbor list builds = 0
Dangerous builds = 0
#6----define computes------
variable nums equal count(all) #计算原子数目
variable toval equal 13.369*13.369*lz #计算系统总体积，单层石墨烯厚度为0.335nm
variable vol equal ${toval} #体系的初始体积
variable vol equal 66309.8339591877 
variable vatom equal v_vol/v_nums #单个原子体积
compute 1 all stress/atom NULL #计算体系中单原子应力
compute xalls all reduce sum c_1[1]
variable xstress equal (c_xalls)/(v_toval*10000)
compute yalls all reduce sum c_1[2]
variable ystress equal (c_yalls)/(v_toval*10000)
compute zalls all reduce sum c_1[3]
variable zstress equal (c_zalls)/(v_toval*10000)
#7---------relaxation-------------------------
timestep ${tstep}
timestep 0.001
#------------5 温度初始化------------------------------
velocity all create 300 4928459 dist gaussian units box
#------------------------------------------------------
dump   1 all atom 100 all-cy.lammpstrj
#fix    1 all npt temp 300 300  0.1 aniso 0 0  drag 1  #三个方向独立控压
fix  s all npt temp ${temperature} ${temperature} 0.1 y ${pressure} ${pressure} 10 x ${pressure} ${pressure} 10
fix  s all npt temp 300 ${temperature} 0.1 y ${pressure} ${pressure} 10 x ${pressure} ${pressure} 10
fix  s all npt temp 300 300 0.1 y ${pressure} ${pressure} 10 x ${pressure} ${pressure} 10
fix  s all npt temp 300 300 0.1 y 0 ${pressure} 10 x ${pressure} ${pressure} 10
fix  s all npt temp 300 300 0.1 y 0 0 10 x ${pressure} ${pressure} 10
fix  s all npt temp 300 300 0.1 y 0 0 10 x 0 ${pressure} 10
fix  s all npt temp 300 300 0.1 y 0 0 10 x 0 0 10
thermo                1000
thermo_modify       lost ignore
compute  2 all pe/atom
compute  pe all reduce sum c_2
variable PE equal "c_pe"
fix    pe all print 100 "${PE} " file PE.txt screen no
thermo  ${thermalstep}
thermo  100
#thermo_style  custom step pe ke etotal lx ly lz
run   ${relaxtime}
run   0
Per MPI rank memory allocation (min/avg/max) = 11.2 | 11.2 | 11.2 Mbytes
   Step          Temp          E_pair         E_mol          TotEng         Press          Volume    
        22   300           -49844.297      0             -49570.718      210.80388      14840211     
Loop time of 0.0209581 on 12 procs for 0 steps with 7056 atoms

61.8% CPU use with 12 MPI tasks x 1 OpenMP threads

MPI task timing breakdown:
Section |  min time  |  avg time  |  max time  |%varavg| %total
---------------------------------------------------------------
Pair    | 0          | 0          | 0          |   0.0 |  0.00
Neigh   | 0          | 0          | 0          |   0.0 |  0.00
Comm    | 0          | 0          | 0          |   0.0 |  0.00
Output  | 0          | 0          | 0          |   0.0 |  0.00
Modify  | 0          | 0          | 0          |   0.0 |  0.00
Other   |            | 0.02096    |            |       |100.00

Nlocal:            588 ave         591 max         585 min
Histogram: 6 0 0 0 0 0 0 0 0 6
Nghost:           2254 ave        2257 max        2251 min
Histogram: 6 0 0 0 0 0 0 0 0 6
Neighs:              0 ave           0 max           0 min
Histogram: 12 0 0 0 0 0 0 0 0 0

Total # of neighbors = 0
Ave neighs/atom = 0
Neighbor list builds = 0
Dangerous builds = 0
#8 -------tension-----------------------------
unfix s
undump  1
unfix  pe
reset_timestep 0
fix avestress all ave/atom 1 ${dumpstep} ${dumpstep} c_1[1] c_1[2] c_1[3] c_1[4] c_1[5] c_1[6]
fix avestress all ave/atom 1 1000 ${dumpstep} c_1[1] c_1[2] c_1[3] c_1[4] c_1[5] c_1[6]
fix avestress all ave/atom 1 1000 1000 c_1[1] c_1[2] c_1[3] c_1[4] c_1[5] c_1[6]

#-----calculation of strain and Cumulative compression--------
variable                tmp equal "lz"
variable                L0 equal ${tmp}
variable                L0 equal 371.0052829818
variable                strain equal "(lz - v_L0)/v_L0"
variable                Cumulativels equal "(lz - v_L0)/10"
fix Step all print 100 "${strain} ${Cumulativels} ${zstress}" file grapoten.txt screen no

dump 2 all custom ${dumpstep} tension.xyz type x y z f_avestress[1] f_avestress[2] f_avestress[3] f_avestress[4] f_avestress[5] f_avestress[6]
dump 2 all custom 1000 tension.xyz type x y z f_avestress[1] f_avestress[2] f_avestress[3] f_avestress[4] f_avestress[5] f_avestress[6]

fix  1 all npt temp ${temperature} ${temperature} 0.1 y ${pressure} ${pressure} 10 x ${pressure} ${pressure} 10
fix  1 all npt temp 300 ${temperature} 0.1 y ${pressure} ${pressure} 10 x ${pressure} ${pressure} 10
fix  1 all npt temp 300 300 0.1 y ${pressure} ${pressure} 10 x ${pressure} ${pressure} 10
fix  1 all npt temp 300 300 0.1 y 0 ${pressure} 10 x ${pressure} ${pressure} 10
fix  1 all npt temp 300 300 0.1 y 0 0 10 x ${pressure} ${pressure} 10
fix  1 all npt temp 300 300 0.1 y 0 0 10 x 0 ${pressure} 10
fix  1 all npt temp 300 300 0.1 y 0 0 10 x 0 0 10

thermo_style custom step pe ke etotal lx ly lz
WARNING: New thermo_style command, previous thermo_modify settings will be lost (src/output.cpp:903)
fix   2 all deform 1 z erate ${deformrate} remap x units box
fix   2 all deform 1 z erate 0.005 remap x units box
fix   3 all ave/time 2 500 1000 v_xstress v_ystress v_zstress file pressure.out
run   ${totaltime}
run   100000
WARNING: Dump 2 includes no atom IDs and is not sorted by ID. This may complicate post-processing tasks or visualization (src/dump.cpp:221)
Per MPI rank memory allocation (min/avg/max) = 12.7 | 12.7 | 12.7 Mbytes
   Step         PotEng         KinEng         TotEng           Lx             Ly             Lz      
         0  -49844.297      273.5791      -49570.718      200            200            371.00528    
       100  -49741.993      193.62984     -49548.363      200.01868      200.02257      371.19079    
       200  -49723.744      206.81528     -49516.928      200.02396      200.02717      371.37629    
       300  -49726.014      243.09037     -49482.924      200.00414      199.99826      371.56179    
       400  -49708.771      258.39591     -49450.375      200.01582      200.01467      371.74729    
       500  -49674.733      255.17421     -49419.558      200.02323      200.02786      371.9328     
       600  -49618.347      229.55356     -49388.793      200.00619      200.00193      372.1183     
       700  -49628.504      271.04117     -49357.463      200.01583      200.01477      372.3038     
       800  -49597.026      264.88295     -49332.143      200.01724      200.02438      372.4893     
       900  -49595.184      277.47429     -49317.71       199.99888      199.99675      372.67481    
      1000  -49634.815      305.67427     -49329.141      200.01423      200.01244      372.86031    
      1100  -49642.391      284.39712     -49357.994      200.01198      200.01896      373.04581    
      1200  -49645.21       265.34865     -49379.862      199.99011      199.99013      373.23131    
      1300  -49664.795      276.11333     -49388.681      200.00679      200.00511      373.41682    
      1400  -49623.215      250.13209     -49373.083      200.00864      200.01808      373.60232    
      1500  -49605.181      258.46278     -49346.718      199.98361      199.98873      373.78782    
      1600  -49621.716      296.79273     -49324.924      200.001        199.99965      373.97333    
      1700  -49599.647      278.87888     -49320.768      200.00651      200.01257      374.15883    
      1800  -49612.903      276.04616     -49336.857      199.97951      199.98615      374.34433    
      1900  -49636.772      282.49471     -49354.277      199.9938       199.99357      374.52983    
      2000  -49620.917      258.14867     -49362.769      199.99883      200.00274      374.71534    
      2100  -49613.578      259.91908     -49353.659      199.97434      199.98372      374.90084    
      2200  -49617.679      284.03053     -49333.649      199.98658      199.99022      375.08634    
      2300  -49590.897      272.04513     -49318.852      199.99126      199.99449      375.27184    
      2400  -49593.935      277.46496     -49316.47       199.96659      199.97688      375.45735    
      2500  -49614.141      286.20278     -49327.939      199.97919      199.98686      375.64285    
      2600  -49600.298      261.71914     -49338.578      199.98424      199.98734      375.82835    
      2700  -49598.225      263.22741     -49334.998      199.96048      199.96897      376.01385    
      2800  -49603.088      282.98314     -49320.105      199.96993      199.97922      376.19936    
      2900  -49584.285      274.78809     -49309.497      199.97664      199.98124      376.38486    
      3000  -49584.877      274.03912     -49310.838      199.95415      199.96275      376.57036    
      3100  -49594.902      275.32953     -49319.572      199.96111      199.97171      376.75586    
      3200  -49587.579      265.04312     -49322.536      199.96634      199.9719       376.94137    
      3300  -49581.002      268.32485     -49312.677      199.94776      199.95511      377.12687    
      3400  -49583.598      284.96284     -49298.635      199.95267      199.96392      377.31237    
      3500  -49569.422      274.59808     -49294.824      199.95505      199.96178      377.49788    
      3600  -49581.459      278.19156     -49303.267      199.9397       199.94514      377.68338    
      3700  -49582.305      272.19314     -49310.112      199.94529      199.9555       377.86888    
      3800  -49569.956      265.37299     -49304.583      199.94471      199.95379      378.05438    
      3900  -49557.823      270.26059     -49287.562      199.92984      199.93599      378.23989    
      4000  -49555.612      281.88515     -49273.727      199.93599      199.94442      378.42539    
      4100  -49552.791      280.18012     -49272.611      199.93449      199.94291      378.61089    
      4200  -49555.536      273.51786     -49282.019      199.92085      199.92524      378.79639    
      4300  -49554.463      266.89395     -49287.57       199.92533      199.93238      378.9819     
      4400  -49549.47       266.95729     -49282.512      199.92197      199.93093      379.1674     
      4500  -49541.718      272.83234     -49268.885      199.91095      199.91407      379.3529     
      4600  -49535.259      277.9688      -49257.29       199.91515      199.91873      379.5384     
      4700  -49534.158      279.46263     -49254.696      199.90866      199.91614      379.72391    
      4800  -49536.271      275.64609     -49260.625      199.89875      199.90066      379.90941    
      4900  -49530.919      266.86282     -49264.056      199.90395      199.9043       380.09491    
      5000  -49528.152      269.82712     -49258.324      199.89547      199.90096      380.28042    
      5100  -49519.366      273.78648     -49245.58       199.88519      199.88766      380.46592    
      5200  -49512.661      277.29604     -49235.365      199.89147      199.8898       380.65142    
      5300  -49511.026      278.48743     -49232.539      199.88179      199.8842       380.83692    
      5400  -49508.37       272.07843     -49236.291      199.87111      199.87301      381.02243    
      5500  -49501.902      264.67173     -49237.23       199.87693      199.87325      381.20793    
      5600  -49501.427      271.20836     -49230.219      199.86704      199.8662       381.39343    
      5700  -49496.293      277.27455     -49219.018      199.85637      199.85858      381.57893    
      5800  -49489.656      277.52376     -49212.132      199.86139      199.85774      381.76444    
      5900  -49490.115      278.38085     -49211.734      199.85247      199.84762      381.94994    
      6000  -49487.29       274.80562     -49212.484      199.84189      199.84192      382.13544    
      6100  -49480.088      271.71937     -49208.369      199.84519      199.84153      382.32094    
      6200  -49472.977      273.87935     -49199.097      199.83626      199.82986      382.50645    
      6300  -49469.556      278.50877     -49191.047      199.82666      199.8248       382.69195    
      6400  -49462.305      272.85231     -49189.453      199.82712      199.82493      382.87745    
      6500  -49464.151      274.02574     -49190.125      199.81924      199.81254      383.06295    
      6600  -49451.871      267.45363     -49184.418      199.81202      199.80782      383.24846    
      6700  -49442.361      269.26753     -49173.094      199.80961      199.80863      383.43396    
      6800  -49445.189      279.94634     -49165.242      199.80069      199.79533      383.61946    
      6900  -49444.737      280.14315     -49164.594      199.79586      199.78885      383.80497    
      7000  -49440.374      274.61972     -49165.754      199.79194      199.78945      383.99047    
      7100  -49433.448      270.62854     -49162.82       199.78195      199.77694      384.17597    
      7200  -49422.021      267.50016     -49154.521      199.77873      199.77156      384.36147    
      7300  -49417.093      273.67707     -49143.416      199.77269      199.7713       384.54698    
      7400  -49414.618      278.97218     -49135.645      199.76197      199.75922      384.73248    
      7500  -49409.18       276.57424     -49132.606      199.75981      199.75326      384.91798    
      7600  -49410.376      276.08606     -49134.29       199.75247      199.75072      385.10348    
      7700  -49402.527      271.75262     -49130.774      199.74138      199.73964      385.28899    
      7800  -49398.385      274.82441     -49123.561      199.7394       199.73432      385.47449    
      7900  -49386.989      274.3091      -49112.68       199.73118      199.7309       385.65999    
      8000  -49383.113      276.73345     -49106.38       199.71974      199.72038      385.84549    
      8100  -49377.605      273.55374     -49104.051      199.71802      199.71388      386.031      
      8200  -49375.919      274.04785     -49101.871      199.71052      199.7084       386.2165     
      8300  -49367.584      270.90126     -49096.683      199.69815      199.69957      386.402      
      8400  -49363.159      273.62786     -49089.531      199.69546      199.69413      386.5875     
      8500  -49353.523      271.63996     -49081.883      199.68798      199.68621      386.77301    
      8600  -49351.708      276.50616     -49075.202      199.67604      199.67756      386.95851    
      8700  -49344.289      273.8335      -49070.455      199.67247      199.67309      387.14401    
      8800  -49337.941      267.57806     -49070.363      199.6645       199.66292      387.32952    
      8900  -49336.92       270.89765     -49066.022      199.65309      199.65456      387.51502    
      9000  -49327.089      272.29434     -49054.795      199.64837      199.65106      387.70052    
      9100  -49318.677      273.46447     -49045.212      199.63923      199.63867      387.88602    
      9200  -49310.872      273.06444     -49037.808      199.62908      199.63005      388.07153    
      9300  -49305.681      275.24511     -49030.435      199.62408      199.62577      388.25703    
      9400  -49302.03       276.55782     -49025.472      199.61343      199.61289      388.44253    
      9500  -49297.908      271.77577     -49026.132      199.604        199.60447      388.62803    
      9600  -49292.245      268.83956     -49023.405      199.59765      199.59855      388.81354    
      9700  -49287.092      272.26119     -49014.831      199.58722      199.58523      388.99904    
      9800  -49277.909      275.26879     -49002.64       199.57777      199.57741      389.18454    
      9900  -49266.068      272.62515     -48993.443      199.57013      199.56941      389.37004    
     10000  -49262.157      275.75462     -48986.403      199.55979      199.5563       389.55555    
     10100  -49260.783      274.95082     -48985.832      199.54917      199.54827      389.74105    
     10200  -49257.887      274.21412     -48983.673      199.54118      199.53917      389.92655    
     10300  -49248.429      270.89094     -48977.538      199.53191      199.52516      390.11206    
     10400  -49238.498      272.00222     -48966.496      199.51991      199.51672      390.29756    
     10500  -49227.794      272.1401      -48955.654      199.51123      199.50852      390.48306    
     10600  -49226.35       277.79278     -48948.557      199.50205      199.49274      390.66856    
     10700  -49222.315      275.36791     -48946.947      199.48994      199.48407      390.85407    
     10800  -49216.292      271.82303     -48944.469      199.48049      199.4757       391.03957    
     10900  -49210.149      272.49867     -48937.65       199.4711       199.45924      391.22507    
     11000  -49201.405      274.22985     -48927.175      199.45975      199.45091      391.41057    
     11100  -49191.306      274.72033     -48916.585      199.44882      199.44302      391.59608    
     11200  -49186.987      277.23669     -48909.75       199.4388       199.42583      391.78158    
     11300  -49179.796      275.03908     -48904.757      199.42844      199.41653      391.96708    
     11400  -49178.515      277.46706     -48901.048      199.41657      199.40871      392.15258    
     11500  -49169.646      272.77925     -48896.866      199.40477      199.39275      392.33809    
     11600  -49163.022      272.50431     -48890.518      199.39556      199.38292      392.52359    
     11700  -49155.235      275.24792     -48879.987      199.38266      199.37442      392.70909    
     11800  -49140.122      275.27554     -48864.846      199.37069      199.35792      392.89459    
     11900  -49138.626      278.57123     -48860.055      199.36266      199.34715      393.0801     
     12000  -49133.073      273.51636     -48859.557      199.34753      199.33803      393.2656     
     12100  -49123.199      268.17719     -48855.021      199.33418      199.32307      393.4511     
     12200  -49119.008      272.98779     -48846.021      199.32634      199.31217      393.63661    
     12300  -49110.396      276.78937     -48833.606      199.31121      199.30131      393.82211    
     12400  -49102.29       275.76526     -48826.525      199.29743      199.28688      394.00761    
     12500  -49097.482      274.45159     -48823.031      199.28915      199.27601      394.19311    
     12600  -49088.643      271.43209     -48817.211      199.27328      199.26382      394.37862    
     12700  -49079.976      272.07994     -48807.896      199.25971      199.25046      394.56412    
     12800  -49072.157      275.39948     -48796.758      199.25109      199.2384       394.74962    
     12900  -49066.325      277.26608     -48789.059      199.23374      199.22559      394.93512    
     13000  -49058.366      273.11929     -48785.246      199.21907      199.21379      395.12063    
     13100  -49049.635      269.58996     -48780.045      199.21031      199.20056      395.30613    
     13200  -49046.469      273.4707      -48772.999      199.19422      199.18609      395.49163    
     13300  -49034.417      273.25193     -48761.165      199.17986      199.17459      395.67713    
     13400  -49026.589      276.30608     -48750.283      199.16902      199.1607       395.86264    
     13500  -49017.494      273.0499      -48744.445      199.15218      199.1455       396.04814    
     13600  -49013.352      273.32069     -48740.031      199.13704      199.13445      396.23364    
     13700  -49003.508      271.19641     -48732.312      199.12596      199.11976      396.41914    
     13800  -48997.199      274.6985      -48722.5        199.10992      199.10373      396.60465    
     13900  -48985.28       272.05874     -48713.221      199.094        199.0915       396.79015    
     14000  -48983.039      275.15533     -48707.884      199.0802       199.07691      396.97565    
     14100  -48977.723      270.83634     -48706.887      199.06479      199.05922      397.16116    
     14200  -48969.123      271.7744      -48697.348      199.04929      199.04521      397.34666    
     14300  -48954.083      269.64662     -48684.436      199.03417      199.03061      397.53216    
     14400  -48949.809      275.80062     -48674.008      199.01784      199.01251      397.71766    
     14500  -48939.22       275.08057     -48664.139      199.0025       198.99704      397.90317    
     14600  -48929.934      275.3781      -48654.556      198.98633      198.98123      398.08867    
     14700  -48926.768      276.03065     -48650.737      198.96935      198.96248      398.27417    
     14800  -48922.241      273.08276     -48649.158      198.95382      198.94634      398.45967    
     14900  -48912.169      270.77211     -48641.397      198.93628      198.92967      398.64518    
     15000  -48901.922      273.48949     -48628.432      198.91867      198.91115      398.83068    
     15100  -48886.914      270.7         -48616.214      198.90441      198.89384      399.01618    
     15200  -48882.953      276.25898     -48606.694      198.88515      198.87556      399.20168    
     15300  -48876.201      276.32728     -48599.874      198.86705      198.85806      399.38719    
     15400  -48870.17       272.60586     -48597.565      198.85157      198.84025      399.57269    
     15500  -48863.228      270.62534     -48592.603      198.83108      198.82117      399.75819    
     15600  -48858.275      275.42028     -48582.855      198.81379      198.80299      399.9437     
     15700  -48843.681      273.76314     -48569.918      198.797        198.78365      400.1292     
     15800  -48831.885      274.36885     -48557.516      198.77643      198.76432      400.3147     
     15900  -48824.529      276.45035     -48548.079      198.75842      198.74717      400.5002     
     16000  -48821.369      278.27087     -48543.098      198.74031      198.72603      400.68571    
     16100  -48813.281      274.05984     -48539.222      198.72011      198.70618      400.87121    
     16200  -48801.371      271.83683     -48529.534      198.70151      198.68852      401.05671    
     16300  -48793.355      276.4917      -48516.864      198.68185      198.66595      401.24221    
     16400  -48779.467      273.65727     -48505.81       198.66102      198.64691      401.42772    
     16500  -48772.953      273.40117     -48499.552      198.64111      198.62827      401.61322    
     16600  -48772.126      273.75138     -48498.374      198.62144      198.60461      401.79872    
     16700  -48755.889      267.34996     -48488.539      198.59991      198.58539      401.98422    
     16800  -48748.392      274.00064     -48474.391      198.57868      198.56632      402.16973    
     16900  -48738.359      276.24621     -48462.113      198.55746      198.54241      402.35523    
     17000  -48731.286      276.61959     -48454.666      198.53614      198.52283      402.54073    
     17100  -48724.564      272.52543     -48452.039      198.51461      198.50147      402.72623    
     17200  -48716.672      272.3778      -48444.294      198.49279      198.47711      402.91174    
     17300  -48703.523      271.75919     -48431.763      198.47034      198.458        403.09724    
     17400  -48692.6        273.4775      -48419.122      198.4469       198.4363       403.28274    
     17500  -48688.22       277.83355     -48410.386      198.42481      198.41114      403.46825    
     17600  -48680.093      274.14755     -48405.946      198.40256      198.39059      403.65375    
     17700  -48668.396      270.05684     -48398.34       198.3779       198.36729      403.83925    
     17800  -48657.141      270.3533      -48386.787      198.35481      198.3419       404.02475    
     17900  -48649.367      275.37501     -48373.992      198.33103      198.32182      404.21026    
     18000  -48641.431      277.43828     -48363.992      198.3049       198.29643      404.39576    
     18100  -48635.225      275.67369     -48359.552      198.28265      198.26948      404.58126    
     18200  -48623.43       270.18562     -48353.245      198.25865      198.24733      404.76676    
     18300  -48611.611      269.79236     -48341.819      198.22971      198.22122      404.95227    
     18400  -48601.128      274.06911     -48327.059      198.20591      198.1952       405.13777    
     18500  -48592.709      276.30338     -48316.405      198.18096      198.16927      405.32327    
     18600  -48587.458      275.59131     -48311.867      198.15195      198.14086      405.50877    
     18700  -48578.762      272.42255     -48306.339      198.12654      198.11461      405.69428    
     18800  -48568.196      271.02577     -48297.17       198.10001      198.08664      405.87978    
     18900  -48560.079      275.43101     -48284.648      198.06994      198.05832      406.06528    
     19000  -48550.375      278.37851     -48271.996      198.0423       198.03161      406.25078    
     19100  -48541.492      274.59619     -48266.896      198.0156       198.0007       406.43629    
     19200  -48531.826      268.28534     -48263.54       197.98542      197.97023      406.62179    
     19300  -48521.117      270.23671     -48250.88       197.95765      197.94209      406.80729    
     19400  -48508.46       272.31411     -48236.146      197.92862      197.91188      406.9928     
     19500  -48501.484      275.8514      -48225.633      197.89591      197.88072      407.1783     
     19600  -48495.626      275.60771     -48220.018      197.8673       197.85136      407.3638     
     19700  -48485.427      270.10648     -48215.32       197.83749      197.81825      407.5493     
     19800  -48475.784      271.33066     -48204.453      197.80468      197.78552      407.73481    
     19900  -48465.089      273.49688     -48191.592      197.77523      197.75482      407.92031    
     20000  -48453.106      273.2617      -48179.844      197.74284      197.72024      408.10581    
     20100  -48442.859      272.51022     -48170.349      197.70928      197.68778      408.29131    
     20200  -48436.117      270.63206     -48165.485      197.67765      197.65667      408.47682    
     20300  -48429.438      269.55318     -48159.885      197.64304      197.62044      408.66232    
     20400  -48419.853      273.04273     -48146.81       197.61076      197.58563      408.84782    
     20500  -48405.594      273.29917     -48132.295      197.57765      197.55266      409.03332    
     20600  -48396.402      274.83573     -48121.567      197.54087      197.5165       409.21883    
     20700  -48384.7        273.21307     -48111.487      197.50748      197.48143      409.40433    
     20800  -48371.072      271.25944     -48099.813      197.47196      197.44636      409.58983    
     20900  -48364.665      277.96752     -48086.697      197.43435      197.40932      409.77534    
     21000  -48352.06       274.92021     -48077.14       197.39992      197.37285      409.96084    
     21100  -48348.666      274.55804     -48074.108      197.36269      197.33619      410.14634    
     21200  -48334.185      267.85247     -48066.332      197.3245       197.29782      410.33184    
     21300  -48328.033      273.69259     -48054.341      197.28807      197.26193      410.51735    
     21400  -48313.079      273.45037     -48039.629      197.24871      197.22386      410.70285    
     21500  -48303.81       275.8858      -48027.924      197.20994      197.18527      410.88835    
     21600  -48290.755      271.68937     -48019.065      197.17315      197.14724      411.07385    
     21700  -48286.245      276.03266     -48010.212      197.13249      197.10678      411.25936    
     21800  -48272.254      270.71983     -48001.534      197.09247      197.06818      411.44486    
     21900  -48265.982      273.49722     -47992.484      197.0539       197.02886      411.63036    
     22000  -48250.703      269.1208      -47981.583      197.01166      196.98729      411.81586    
     22100  -48239.366      273.21458     -47966.151      196.97044      196.94786      412.00137    
     22200  -48230.156      276.38731     -47953.768      196.93078      196.90527      412.18687    
     22300  -48219.445      271.3889      -47948.056      196.88815      196.86192      412.37237    
     22400  -48212.413      270.67115     -47941.742      196.84539      196.82234      412.55787    
     22500  -48198.998      267.94575     -47931.052      196.80347      196.7786       412.74338    
     22600  -48189.98       272.96767     -47917.012      196.76072      196.73385      412.92888    
     22700  -48179.071      274.11912     -47904.952      196.71682      196.69211      413.11438    
     22800  -48169.541      273.5298      -47896.011      196.67302      196.64698      413.29989    
     22900  -48160.038      272.28036     -47887.758      196.62965      196.60215      413.48539    
     23000  -48150.075      272.56416     -47877.51       196.58625      196.55666      413.67089    
     23100  -48137.252      270.89604     -47866.356      196.54087      196.51224      413.85639    
     23200  -48127.56       274.07707     -47853.483      196.4953       196.46819      414.0419     
     23300  -48114.923      275.29763     -47839.625      196.45163      196.4205       414.2274     
     23400  -48103.497      275.56525     -47827.931      196.40732      196.37438      414.4129     
     23500  -48096.948      273.85564     -47823.092      196.36057      196.32943      414.5984     
     23600  -48085.67       269.65281     -47816.017      196.31587      196.28369      414.78391    
     23700  -48076.685      272.23631     -47804.449      196.27107      196.23665      414.96941    
     23800  -48064.989      276.09135     -47788.898      196.22449      196.19032      415.15491    
     23900  -48051.571      276.20885     -47775.363      196.17966      196.14506      415.34041    
     24000  -48042.711      277.2655      -47765.445      196.13457      196.09711      415.52592    
     24100  -48034.606      274.03728     -47760.568      196.08859      196.05102      415.71142    
     24200  -48021.667      268.73487     -47752.932      196.04331      196.00559      415.89692    
     24300  -48011.011      269.63053     -47741.38       195.99683      195.95868      416.08242    
     24400  -48002.252      277.0261      -47725.226      195.95141      195.91338      416.26793    
     24500  -47989.033      276.69419     -47712.339      195.9067       195.86762      416.45343    
     24600  -47977.372      273.73734     -47703.635      195.8621       195.82091      416.63893    
     24700  -47966.362      271.80372     -47694.559      195.81722      195.77553      416.82444    
     24800  -47957.553      272.58458     -47684.968      195.77139      195.7319       417.00994    
     24900  -47952.209      276.45444     -47675.755      195.72599      195.68702      417.19544    
     25000  -47939.159      271.42049     -47667.739      195.68223      195.64202      417.38094    
     25100  -47927.788      267.85935     -47659.929      195.63799      195.59876      417.56645    
     25200  -47920.272      271.17015     -47649.102      195.5945       195.55385      417.75195    
     25300  -47906.451      274.54868     -47631.902      195.55222      195.51053      417.93745    
     25400  -47893.077      274.61051     -47618.466      195.50819      195.46915      418.12295    
     25500  -47883.75       274.5941      -47609.156      195.46406      195.42689      418.30846    
     25600  -47871.266      269.35241     -47601.914      195.42434      195.38539      418.49396    
     25700  -47864.019      271.68388     -47592.335      195.38225      195.34273      418.67946    
     25800  -47849.524      272.78401     -47576.74       195.34044      195.30159      418.86496    
     25900  -47838.625      276.50409     -47562.121      195.30084      195.26186      419.05047    
     26000  -47828.368      275.07419     -47553.294      195.25934      195.22099      419.23597    
     26100  -47818.278      271.61688     -47546.661      195.21955      195.18217      419.42147    
     26200  -47802.635      268.25333     -47534.382      195.17998      195.14266      419.60698    
     26300  -47794.424      279.17289     -47515.251      195.14093      195.10305      419.79248    
     26400  -47783.699      277.81025     -47505.889      195.10335      195.06491      419.97798    
     26500  -47773.364      273.23467     -47500.13       195.06584      195.0258       420.16348    
     26600  -47759.378      268.96224     -47490.416      195.02821      194.98862      420.34899    
     26700  -47747.571      272.25005     -47475.321      194.99135      194.95166      420.53449    
     26800  -47737.667      276.72543     -47460.942      194.95565      194.91472      420.71999    
     26900  -47728.198      276.03542     -47452.163      194.91817      194.87957      420.90549    
     27000  -47720.889      276.06712     -47444.822      194.88348      194.84431      421.091      
     27100  -47703.958      269.84798     -47434.11       194.85078      194.80827      421.2765     
     27200  -47695.088      276.71556     -47418.372      194.81608      194.77348      421.462      
     27300  -47680.388      276.83717     -47403.551      194.78339      194.74071      421.6475     
     27400  -47669.133      275.26456     -47393.868      194.75047      194.70707      421.83301    
     27500  -47658.97       274.03868     -47384.931      194.71744      194.67447      422.01851    
     27600  -47650.027      273.42772     -47376.599      194.68721      194.64357      422.20401    
     27700  -47639.089      271.22465     -47367.864      194.65592      194.61039      422.38951    
     27800  -47628.298      270.1415      -47358.156      194.62674      194.579        422.57502    
     27900  -47616.34       273.83286     -47342.507      194.59806      194.54892      422.76052    
     28000  -47601.377      275.27879     -47326.099      194.56769      194.51906      422.94602    
     28100  -47590.524      274.75146     -47315.773      194.53812      194.49183      423.13153    
     28200  -47580.775      271.74068     -47309.034      194.51         194.4636       423.31703    
     28300  -47572.504      274.50039     -47298.004      194.48299      194.4348       423.50253    
     28400  -47552.008      270.54967     -47281.458      194.45697      194.40684      423.68803    
     28500  -47543.314      273.88012     -47269.434      194.43086      194.37984      423.87354    
     28600  -47536.811      275.90741     -47260.903      194.40431      194.35348      424.05904    
     28700  -47525.358      272.46776     -47252.891      194.378        194.32945      424.24454    
     28800  -47514.115      272.23227     -47241.883      194.35237      194.30593      424.43004    
     28900  -47499.797      275.99737     -47223.8        194.3274       194.28011      424.61555    
     29000  -47489.993      280.16094     -47209.833      194.30531      194.25697      424.80105    
     29100  -47476.461      274.744       -47201.717      194.28223      194.23267      424.98655    
     29200  -47464.738      271.82573     -47192.913      194.25864      194.20842      425.17205    
     29300  -47454.017      273.5304      -47180.486      194.23624      194.18961      425.35756    
     29400  -47443          274.3527      -47168.647      194.21175      194.16709      425.54306    
     29500  -47428.54       269.52297     -47159.017      194.19056      194.14571      425.72856    
     29600  -47418.779      270.67278     -47148.107      194.17         194.12664      425.91406    
     29700  -47407.953      276.84804     -47131.105      194.14879      194.10245      426.09957    
     29800  -47391.792      275.5088      -47116.283      194.13007      194.0823       426.28507    
     29900  -47378.237      271.8732      -47106.364      194.10878      194.06389      426.47057    
     30000  -47373.469      273.60016     -47099.869      194.087        194.04298      426.65608    
     30100  -47360.27       271.70623     -47088.564      194.06871      194.0247       426.84158    
     30200  -47348.001      275.04565     -47072.955      194.04712      194.00623      427.02708    
     30300  -47334.249      273.76094     -47060.488      194.02866      193.98524      427.21258    
     30400  -47320.833      271.17741     -47049.655      194.01189      193.96601      427.39809    
     30500  -47307.484      269.01463     -47038.47       193.9915       193.94822      427.58359    
     30600  -47293.598      270.7502      -47022.848      193.97303      193.92846      427.76909    
     30700  -47284.046      278.05817     -47005.988      193.95605      193.91124      427.95459    
     30800  -47274.375      277.95935     -46996.415      193.93555      193.89371      428.1401     
     30900  -47263.468      274.20539     -46989.262      193.91913      193.87426      428.3256     
     31000  -47249.574      271.50664     -46978.067      193.90442      193.85643      428.5111     
     31100  -47237.356      273.29847     -46964.057      193.88535      193.8382       428.6966     
     31200  -47222.264      274.78588     -46947.478      193.86987      193.82045      428.88211    
     31300  -47212.283      278.97165     -46933.311      193.85342      193.80431      429.06761    
     31400  -47205.482      276.27808     -46929.204      193.83392      193.78767      429.25311    
     31500  -47193.503      273.60036     -46919.903      193.81949      193.77132      429.43862    
     31600  -47178.669      272.45025     -46906.219      193.80248      193.75468      429.62412    
     31700  -47162.866      273.04809     -46889.818      193.78618      193.73777      429.80962    
     31800  -47151.653      275.12174     -46876.531      193.77265      193.72085      429.99512    
     31900  -47143.206      274.77092     -46868.435      193.75606      193.70502      430.18063    
     32000  -47131.939      270.70746     -46861.232      193.74009      193.68898      430.36613    
     32100  -47117.738      270.11222     -46847.625      193.72573      193.67353      430.55163    
     32200  -47107.67       275.38404     -46832.286      193.70779      193.65976      430.73713    
     32300  -47093.993      275.84061     -46818.152      193.69278      193.64435      430.92264    
     32400  -47078.128      273.13205     -46804.996      193.67981      193.62863      431.10814    
     32500  -47064.194      269.57883     -46794.615      193.66326      193.61358      431.29364    
     32600  -47061.324      271.00454     -46790.319      193.64981      193.59796      431.47914    
     32700  -47049.699      271.91255     -46777.786      193.636        193.58331      431.66465    
     32800  -47030.497      269.9072      -46760.59       193.61848      193.57046      431.85015    
     32900  -47016.599      271.05929     -46745.54       193.6048       193.55762      432.03565    
     33000  -47008.004      274.59606     -46733.408      193.59036      193.54282      432.22115    
     33100  -46997.614      273.27498     -46724.339      193.57577      193.52932      432.40666    
     33200  -46990.043      271.96703     -46718.076      193.56372      193.51479      432.59216    
     33300  -46975.669      266.79114     -46708.877      193.54974      193.4994       432.77766    
     33400  -46965.011      277.34522     -46687.666      193.5348       193.48768      432.96317    
     33500  -46943.559      271.74712     -46671.811      193.52059      193.47482      433.14867    
     33600  -46933.766      275.0069      -46658.759      193.5059       193.46165      433.33417    
     33700  -46921.786      274.73047     -46647.056      193.49135      193.44895      433.51967    
     33800  -46906.429      269.53176     -46636.897      193.47901      193.43441      433.70518    
     33900  -46901.904      273.24186     -46628.662      193.46542      193.41908      433.89068    
     34000  -46889.778      270.60029     -46619.178      193.45166      193.40549      434.07618    
     34100  -46873.37       272.19933     -46601.171      193.43858      193.39126      434.26168    
     34200  -46859.386      275.75161     -46583.634      193.42337      193.37777      434.44719    
     34300  -46847.905      275.45495     -46572.45       193.40926      193.36476      434.63269    
     34400  -46840.479      276.3261      -46564.153      193.39525      193.35026      434.81819    
     34500  -46828.227      273.68166     -46554.545      193.38159      193.33602      435.00369    
     34600  -46810.702      270.72297     -46539.979      193.36846      193.32153      435.1892     
     34700  -46793.88       274.44329     -46519.437      193.35559      193.30674      435.3747     
     34800  -46783.481      276.83827     -46506.643      193.34221      193.29212      435.5602     
     34900  -46773.539      275.287       -46498.252      193.32824      193.27825      435.7457     
     35000  -46759.921      270.7185      -46489.203      193.31396      193.2645       435.93121    
     35100  -46748.025      271.48885     -46476.536      193.29968      193.25039      436.11671    
     35200  -46736.594      275.98417     -46460.61       193.28514      193.23742      436.30221    
     35300  -46720.08       279.54838     -46440.532      193.27175      193.2233       436.48772    
     35400  -46704.81       275.6126      -46429.198      193.25934      193.20702      436.67322    
     35500  -46693.417      272.96812     -46420.448      193.2464       193.19287      436.85872    
     35600  -46684.24       274.10825     -46410.132      193.2325       193.17769      437.04422    
     35700  -46674.347      273.65783     -46400.689      193.21901      193.16322      437.22973    
     35800  -46661.257      270.82957     -46390.427      193.20333      193.15192      437.41523    
     35900  -46649.265      273.35164     -46375.913      193.18818      193.13822      437.60073    
     36000  -46631.48       276.97703     -46354.503      193.17568      193.12332      437.78623    
     36100  -46623.925      280.58826     -46343.337      193.16165      193.10901      437.97174    
     36200  -46606.063      270.27343     -46335.789      193.14923      193.09328      438.15724    
     36300  -46597.815      272.03651     -46325.779      193.13652      193.078        438.34274    
     36400  -46586.286      273.51837     -46312.768      193.1209       193.06587      438.52824    
     36500  -46570.477      274.1189      -46296.358      193.10582      193.05296      438.71375    
     36600  -46554.547      276.99386     -46277.553      193.09135      193.04011      438.89925    
     36700  -46536.891      271.59443     -46265.296      193.0764       193.02746      439.08475    
     36800  -46531.337      272.68413     -46258.653      193.06327      193.01182      439.27026    
     36900  -46523.159      275.84688     -46247.312      193.05114      192.99734      439.45576    
     37000  -46509.472      274.7153      -46234.757      193.0361       192.98401      439.64126    
     37100  -46494.989      273.31204     -46221.677      193.02161      192.96998      439.82676    
     37200  -46479.047      273.01643     -46206.03       193.00765      192.95712      440.01227    
     37300  -46464.839      276.54463     -46188.295      192.99133      192.94396      440.19777    
     37400  -46454.06       277.76008     -46176.299      192.97823      192.92948      440.38327    
     37500  -46441.887      271.47324     -46170.414      192.9645       192.91434      440.56877    
     37600  -46430.115      271.9941      -46158.121      192.9491       192.89998      440.75428    
     37700  -46416.694      274.49939     -46142.194      192.93574      192.88453      440.93978    
     37800  -46403.169      276.65202     -46126.517      192.92156      192.86857      441.12528    
     37900  -46388.076      275.4266      -46112.649      192.9059       192.85456      441.31078    
     38000  -46376.249      274.16467     -46102.085      192.89083      192.83973      441.49629    
     38100  -46366.513      271.59686     -46094.916      192.87534      192.82475      441.68179    
     38200  -46354.483      270.5211      -46083.962      192.8586       192.81085      441.86729    
     38300  -46341.426      274.52651     -46066.9        192.84434      192.7951       442.05279    
     38400  -46322.489      273.46727     -46049.022      192.83047      192.77769      442.2383     
     38500  -46311.927      275.90691     -46036.021      192.81516      192.76165      442.4238     
     38600  -46301.44       274.93404     -46026.506      192.80108      192.74515      442.6093     
     38700  -46286.042      270.841       -46015.201      192.78527      192.72883      442.79481    
     38800  -46273.649      272.19217     -46001.456      192.76787      192.7154       442.98031    
     38900  -46258.688      274.25459     -45984.433      192.75199      192.7          443.16581    
     39000  -46243.452      281.06173     -45962.39       192.73715      192.68217      443.35131    
     39100  -46229.723      278.04385     -45951.679      192.72165      192.66651      443.53682    
     39200  -46219.311      275.32832     -45943.983      192.70701      192.6488       443.72232    
     39300  -46206.637      271.96516     -45934.672      192.69161      192.63112      443.90782    
     39400  -46197.165      273.1978      -45923.967      192.67441      192.61643      444.09332    
     39500  -46185.062      272.09474     -45912.968      192.65789      192.60031      444.27883    
     39600  -46175.36       273.03127     -45902.328      192.64225      192.58292      444.46433    
     39700  -46160.553      270.49161     -45890.062      192.62475      192.56816      444.64983    
     39800  -46143.278      273.17192     -45870.106      192.60805      192.55134      444.83533    
     39900  -46127.964      273.98396     -45853.98       192.59276      192.53367      445.02084    
     40000  -46115.477      273.48327     -45841.994      192.57568      192.518        445.20634    
     40100  -46106.538      272.69111     -45833.847      192.55912      192.50043      445.39184    
     40200  -46097.143      274.7754      -45822.368      192.54449      192.48241      445.57734    
     40300  -46080.63       272.71432     -45807.916      192.52598      192.46773      445.76285    
     40400  -46067.33       274.22926     -45793.101      192.50741      192.45179      445.94835    
     40500  -46049.611      270.80664     -45778.805      192.49152      192.43528      446.13385    
     40600  -46033.958      270.23598     -45763.722      192.47218      192.42045      446.31936    
     40700  -46025.839      279.45018     -45746.389      192.45581      192.40237      446.50486    
     40800  -46008.468      278.40459     -45730.063      192.44165      192.38343      446.69036    
     40900  -45997.928      275.73276     -45722.195      192.42262      192.36695      446.87586    
     41000  -45981.759      269.04891     -45712.71       192.4061       192.34908      447.06137    
     41100  -45969.572      270.83057     -45698.742      192.3883       192.33194      447.24687    
     41200  -45954.695      272.15311     -45682.542      192.36676      192.31747      447.43237    
     41300  -45943.779      278.39352     -45665.385      192.35032      192.2988       447.61787    
     41400  -45928.725      279.93004     -45648.795      192.33338      192.27887      447.80338    
     41500  -45918.779      277.78258     -45640.997      192.31386      192.26139      447.98888    
     41600  -45904.221      271.93661     -45632.285      192.2978       192.24109      448.17438    
     41700  -45888.811      269.24197     -45619.569      192.27966      192.22147      448.35988    
     41800  -45876.928      272.57687     -45604.351      192.25795      192.20538      448.54539    
     41900  -45864.634      278.00295     -45586.631      192.24007      192.18595      448.73089    
     42000  -45844.779      273.48958     -45571.289      192.22057      192.16684      448.91639    
     42100  -45837.879      273.16725     -45564.712      192.19982      192.14898      449.1019     
     42200  -45827.293      273.90138     -45553.392      192.18377      192.1264       449.2874     
     42300  -45812.683      274.91886     -45537.764      192.16481      192.10616      449.4729     
     42400  -45797.829      277.37665     -45520.452      192.14369      192.08792      449.6584     
     42500  -45780.599      276.71681     -45503.882      192.12659      192.0659       449.84391    
     42600  -45767.824      275.22591     -45492.598      192.10543      192.04679      450.02941    
     42700  -45755.455      270.51919     -45484.936      192.08362      192.029        450.21491    
     42800  -45744.706      272.38147     -45472.324      192.06628      192.00585      450.40041    
     42900  -45728.656      272.42827     -45456.228      192.04524      191.98651      450.58592    
     43000  -45715.127      278.83216     -45436.295      192.02386      191.96672      450.77142    
     43100  -45701.493      279.96436     -45421.529      192.00663      191.94293      450.95692    
     43200  -45685.651      273.39665     -45412.254      191.98428      191.92395      451.14242    
     43300  -45671.919      272.3389      -45399.58       191.96241      191.9039       451.32793    
     43400  -45661.316      273.53259     -45387.784      191.94491      191.88043      451.51343    
     43500  -45645.249      268.2816      -45376.967      191.9209       191.86198      451.69893    
     43600  -45638.13       273.32694     -45364.803      191.89858      191.84227      451.88443    
     43700  -45627.496      273.86948     -45353.626      191.88047      191.81781      452.06994    
     43800  -45611.026      268.22819     -45342.798      191.85716      191.79936      452.25544    
     43900  -45595.429      270.47984     -45324.949      191.83538      191.77805      452.44094    
     44000  -45582.59       277.17957     -45305.41       191.81692      191.7538       452.62645    
     44100  -45563.406      273.5804      -45289.826      191.7927       191.73558      452.81195    
     44200  -45552.605      276.41073     -45276.194      191.77021      191.71454      452.99745    
     44300  -45541.027      273.83586     -45267.191      191.75055      191.69097      453.18295    
     44400  -45526.486      269.36839     -45257.117      191.72548      191.67269      453.36846    
     44500  -45513.747      272.80017     -45240.947      191.70357      191.65012      453.55396    
     44600  -45497.248      274.40305     -45222.845      191.68381      191.62545      453.73946    
     44700  -45482.496      275.06126     -45207.435      191.65936      191.60601      453.92496    
     44800  -45471.715      276.77044     -45194.944      191.63615      191.58264      454.11047    
     44900  -45456.642      273.46343     -45183.179      191.61541      191.55841      454.29597    
     45000  -45442.344      273.20723     -45169.136      191.58913      191.53932      454.48147    
     45100  -45430.038      276.41215     -45153.625      191.5656       191.51524      454.66697    
     45200  -45413.718      275.38554     -45138.333      191.545        191.48995      454.85248    
     45300  -45401.269      274.02227     -45127.247      191.51887      191.46831      455.03798    
     45400  -45389.617      270.7764      -45118.84       191.49676      191.44196      455.22348    
     45500  -45373.412      270.17287     -45103.239      191.47495      191.41744      455.40898    
     45600  -45359.551      273.85423     -45085.697      191.44769      191.39565      455.59449    
     45700  -45344.104      274.32324     -45069.78       191.42359      191.37105      455.77999    
     45800  -45332.714      275.08629     -45057.628      191.39985      191.34718      455.96549    
     45900  -45319.363      268.21133     -45051.151      191.37299      191.324        456.151      
     46000  -45308.3        272.39872     -45035.901      191.35131      191.29689      456.3365     
     46100  -45290.585      273.62643     -45016.958      191.32836      191.27074      456.522      
     46200  -45275.862      276.67193     -44999.19       191.30209      191.24642      456.7075     
     46300  -45259.952      275.04403     -44984.908      191.27879      191.22056      456.89301    
     46400  -45249.059      271.64039     -44977.418      191.25217      191.19622      457.07851    
     46500  -45235.674      270.73789     -44964.937      191.22424      191.17314      457.26401    
     46600  -45220.533      273.1213      -44947.412      191.20041      191.14733      457.44951    
     46700  -45204.553      274.91462     -44929.638      191.17489      191.12077      457.63502    
     46800  -45189.076      274.39872     -44914.678      191.14928      191.09498      457.82052    
     46900  -45178.139      270.32216     -44907.817      191.12623      191.06777      458.00602    
     47000  -45164.887      269.26317     -44895.623      191.09912      191.04174      458.19152    
     47100  -45152.832      273.80408     -44879.028      191.07132      191.01797      458.37703    
     47200  -45135.348      275.05287     -44860.295      191.04601      190.99281      458.56253    
     47300  -45120.155      277.43137     -44842.723      191.0177       190.96734      458.74803    
     47400  -45110.864      278.31227     -44832.552      190.99168      190.94138      458.93354    
     47500  -45097.813      274.27492     -44823.539      190.96763      190.91416      459.11904    
     47600  -45082.604      273.63863     -44808.966      190.94092      190.8868       459.30454    
     47700  -45063.572      272.61375     -44790.959      190.91442      190.86154      459.49004    
     47800  -45051.495      279.02758     -44772.467      190.88803      190.83573      459.67555    
     47900  -45035.99       275.50434     -44760.486      190.85917      190.81037      459.86105    
     48000  -45021.938      270.11278     -44751.825      190.83143      190.78553      460.04655    
     48100  -45009.573      273.2301      -44736.343      190.8057       190.75825      460.23205    
     48200  -44992.096      273.28971     -44718.806      190.77796      190.73069      460.41756    
     48300  -44977.102      275.39407     -44701.708      190.75211      190.70324      460.60306    
     48400  -44961.333      275.72067     -44685.612      190.72604      190.67529      460.78856    
     48500  -44945.795      271.81474     -44673.981      190.69669      190.64889      460.97406    
     48600  -44935.56       271.36596     -44664.194      190.66847      190.62304      461.15957    
     48700  -44926.272      274.89792     -44651.374      190.64033      190.59448      461.34507    
     48800  -44912.003      275.24017     -44636.763      190.6118       190.56754      461.53057    
     48900  -44894.657      273.92628     -44620.731      190.58478      190.53883      461.71607    
     49000  -44882.293      278.71072     -44603.583      190.55829      190.50926      461.90158    
     49100  -44865.573      275.85741     -44589.715      190.52847      190.48239      462.08708    
     49200  -44853.216      273.33407     -44579.882      190.50084      190.45452      462.27258    
     49300  -44838.427      271.33072     -44567.097      190.47234      190.42545      462.45809    
     49400  -44827.379      275.96803     -44551.411      190.44367      190.39842      462.64359    
     49500  -44808.065      276.17067     -44531.894      190.41595      190.36886      462.82909    
     49600  -44785.33       274.28577     -44511.044      190.38734      190.33995      463.01459    
     49700  -44775.51       275.42358     -44500.086      190.3587       190.31286      463.2001     
     49800  -44762.958      274.19531     -44488.763      190.32968      190.2835       463.3856     
     49900  -44749.875      273.45245     -44476.423      190.30131      190.25552      463.5711     
     50000  -44737.208      273.44423     -44463.764      190.27251      190.22687      463.7566     
     50100  -44722.288      272.24715     -44450.041      190.24487      190.19673      463.94211    
     50200  -44710.855      272.65254     -44438.203      190.21659      190.1681       464.12761    
     50300  -44695.726      268.63644     -44427.089      190.18801      190.13933      464.31311    
     50400  -44679.957      270.50484     -44409.452      190.15881      190.11073      464.49861    
     50500  -44660.8        273.46035     -44387.34       190.12918      190.08301      464.68412    
     50600  -44647.747      275.40852     -44372.338      190.10035      190.05502      464.86962    
     50700  -44633.214      273.63478     -44359.579      190.07037      190.02599      465.05512    
     50800  -44616.767      268.98385     -44347.783      190.04333      189.99804      465.24062    
     50900  -44604.167      271.03303     -44333.134      190.01451      189.96813      465.42613    
     51000  -44594.298      276.66088     -44317.637      189.98605      189.94011      465.61163    
     51100  -44577.867      275.3807      -44302.486      189.95749      189.91269      465.79713    
     51200  -44557.939      269.69964     -44288.239      189.92783      189.88503      465.98264    
     51300  -44545.268      270.00565     -44275.263      189.89808      189.85778      466.16814    
     51400  -44535.443      271.56973     -44263.874      189.86988      189.82962      466.35364    
     51500  -44517.273      268.72412     -44248.549      189.84208      189.80147      466.53914    
     51600  -44500.462      273.92531     -44226.536      189.8131       189.77217      466.72465    
     51700  -44483.727      276.0134      -44207.713      189.78587      189.74447      466.91015    
     51800  -44469.103      274.02966     -44195.073      189.75683      189.71547      467.09565    
     51900  -44459.758      276.37205     -44183.386      189.72749      189.68854      467.28115    
     52000  -44444.245      274.1584      -44170.087      189.69864      189.66046      467.46666    
     52100  -44427.291      271.40868     -44155.882      189.6711       189.63113      467.65216    
     52200  -44411.63       270.97429     -44140.656      189.64183      189.60343      467.83766    
     52300  -44399.852      272.24421     -44127.607      189.61389      189.57472      468.02316    
     52400  -44386.641      270.33304     -44116.308      189.58596      189.54567      468.20867    
     52500  -44374.222      273.57461     -44100.648      189.55603      189.51936      468.39417    
     52600  -44355.516      276.13302     -44079.383      189.52734      189.49107      468.57967    
     52700  -44338.596      278.63276     -44059.964      189.50074      189.46116      468.76518    
     52800  -44321.427      274.80477     -44046.622      189.47262      189.434        468.95068    
     52900  -44305.059      271.49608     -44033.563      189.44472      189.40415      469.13618    
     53000  -44296.155      275.88741     -44020.267      189.41871      189.37617      469.32168    
     53100  -44279.917      272.10189     -44007.815      189.38812      189.34982      469.50719    
     53200  -44267.749      274.65501     -43993.094      189.36009      189.32236      469.69269    
     53300  -44244.934      266.90007     -43978.034      189.3333       189.29438      469.87819    
     53400  -44236.649      270.18914     -43966.46       189.30412      189.26796      470.06369    
     53500  -44223.929      272.79759     -43951.131      189.27881      189.23874      470.2492     
     53600  -44207.187      276.27791     -43930.909      189.25297      189.20997      470.4347     
     53700  -44187.52       277.42134     -43910.099      189.22427      189.1842       470.6202     
     53800  -44172.513      276.89472     -43895.618      189.19794      189.15627      470.8057     
     53900  -44157.512      271.46159     -43886.05       189.17065      189.13071      470.99121    
     54000  -44145.812      275.12222     -43870.689      189.14107      189.10606      471.17671    
     54100  -44130.102      274.40577     -43855.696      189.11626      189.07805      471.36221    
     54200  -44116.013      275.17689     -43840.836      189.08982      189.05191      471.54771    
     54300  -44097.453      271.9875      -43825.466      189.06233      189.026        471.73322    
     54400  -44085.525      273.52729     -43811.998      189.03858      188.99892      471.91872    
     54500  -44070.221      271.43147     -43798.79       189.01132      188.97334      472.10422    
     54600  -44054.882      272.39346     -43782.489      188.98402      188.94921      472.28973    
     54700  -44035.935      276.47935     -43759.455      188.95988      188.92335      472.47523    
     54800  -44016.125      276.65162     -43739.474      188.93303      188.89909      472.66073    
     54900  -44003.722      276.66624     -43727.056      188.90681      188.87429      472.84623    
     55000  -43990.337      276.04487     -43714.292      188.88367      188.84821      473.03174    
     55100  -43972.363      273.3702      -43698.993      188.85702      188.82418      473.21724    
     55200  -43955.197      270.20499     -43684.992      188.83108      188.79954      473.40274    
     55300  -43945.275      273.19793     -43672.077      188.80774      188.77432      473.58824    
     55400  -43931.004      272.07688     -43658.927      188.78137      188.75031      473.77375    
     55500  -43917.973      270.09531     -43647.878      188.75739      188.72504      473.95925    
     55600  -43898.022      265.75785     -43632.264      188.73388      188.69987      474.14475    
     55700  -43886.354      278.09541     -43608.258      188.70773      188.67603      474.33025    
     55800  -43867.615      278.95086     -43588.664      188.68405      188.65217      474.51576    
     55900  -43843.1        271.99776     -43571.102      188.65975      188.62813      474.70126    
     56000  -43834.227      275.92349     -43558.303      188.63431      188.60453      474.88676    
     56100  -43819.275      274.34402     -43544.931      188.61242      188.58003      475.07226    
     56200  -43800.848      272.98405     -43527.864      188.58916      188.55491      475.25777    
     56300  -43784.033      273.81829     -43510.215      188.56595      188.53161      475.44327    
     56400  -43766.609      272.5891      -43494.02       188.54332      188.50728      475.62877    
     56500  -43757.145      273.44206     -43483.703      188.51939      188.48547      475.81428    
     56600  -43741.897      273.32721     -43468.57       188.49457      188.46366      475.99978    
     56700  -43721.148      273.49879     -43447.649      188.47165      188.44015      476.18528    
     56800  -43699.137      272.94793     -43426.189      188.44967      188.4184       476.37078    
     56900  -43681.866      273.66403     -43408.201      188.42721      188.39436      476.55629    
     57000  -43669.624      270.47119     -43399.153      188.4075       188.37033      476.74179    
     57100  -43658.544      275.02129     -43383.523      188.38487      188.34897      476.92729    
     57200  -43640.256      274.7119      -43365.544      188.36166      188.3268       477.11279    
     57300  -43618.115      271.1278      -43346.987      188.34055      188.30597      477.2983     
     57400  -43604.544      272.99975     -43331.544      188.31604      188.28569      477.4838     
     57500  -43591.744      273.0435      -43318.701      188.29516      188.26441      477.6693     
     57600  -43574.239      272.13667     -43302.103      188.27505      188.24239      477.8548     
     57700  -43553.798      272.27844     -43281.52       188.25379      188.22152      478.04031    
     57800  -43534.992      278.64212     -43256.349      188.2337       188.20005      478.22581    
     57900  -43512.312      273.87926     -43238.432      188.21274      188.17909      478.41131    
     58000  -43501.267      274.49626     -43226.771      188.19148      188.16063      478.59682    
     58100  -43484.006      272.82198     -43211.184      188.17008      188.1404       478.78232    
     58200  -43470.141      273.45007     -43196.691      188.14971      188.11995      478.96782    
     58300  -43455.625      273.94759     -43181.677      188.12993      188.10078      479.15332    
     58400  -43439.079      274.21026     -43164.869      188.11042      188.07949      479.33883    
     58500  -43422.731      275.64717     -43147.083      188.09015      188.05946      479.52433    
     58600  -43401.396      271.62292     -43129.773      188.06983      188.04175      479.70983    
     58700  -43384.403      271.3227      -43113.08       188.04991      188.02098      479.89533    
     58800  -43370.847      275.08033     -43095.767      188.02971      188.00206      480.08084    
     58900  -43353.379      274.02885     -43079.35       188.01051      187.98322      480.26634    
     59000  -43337.646      274.00651     -43063.639      187.99217      187.96148      480.45184    
     59100  -43317.963      269.87081     -43048.092      187.97234      187.94278      480.63734    
     59200  -43303.222      272.30877     -43030.914      187.95307      187.92382      480.82285    
     59300  -43282.385      273.47523     -43008.91       187.93481      187.90398      481.00835    
     59400  -43260.29       276.46427     -42983.826      187.91434      187.88692      481.19385    
     59500  -43239.375      274.15578     -42965.219      187.8955       187.8677       481.37935    
     59600  -43229.478      277.32525     -42952.153      187.87901      187.84773      481.56486    
     59700  -43209.53       274.68995     -42934.84       187.85909      187.8298       481.75036    
     59800  -43188.985      271.2749      -42917.71       187.8421       187.8105       481.93586    
     59900  -43172.84       270.90389     -42901.936      187.82451      187.79157      482.12137    
     60000  -43161.605      275.73533     -42885.869      187.80382      187.77493      482.30687    
     60100  -43142.74       272.62014     -42870.12       187.78739      187.75632      482.49237    
     60200  -43125.852      270.12372     -42855.728      187.76992      187.73789      482.67787    
     60300  -43104.198      270.53473     -42833.664      187.75048      187.72042      482.86338    
     60400  -43083.586      275.85086     -42807.735      187.73485      187.70121      483.04888    
     60500  -43065.192      277.56721     -42787.625      187.71658      187.68484      483.23438    
     60600  -43049.15       277.89948     -42771.251      187.69754      187.66839      483.41988    
     60700  -43028.882      273.11367     -42755.769      187.68151      187.64981      483.60539    
     60800  -43008.155      272.11187     -42736.043      187.66372      187.63424      483.79089    
     60900  -42993.752      277.33213     -42716.42       187.64582      187.61668      483.97639    
     61000  -42968.706      270.04572     -42698.661      187.63052      187.59834      484.16189    
     61100  -42957.112      271.01469     -42686.097      187.61255      187.58414      484.3474     
     61200  -42938.082      272.50464     -42665.578      187.59481      187.56648      484.5329     
     61300  -42915.223      273.25198     -42641.971      187.57942      187.54927      484.7184     
     61400  -42895.349      276.45839     -42618.891      187.56141      187.53526      484.9039     
     61500  -42874.533      275.56869     -42598.965      187.54489      187.51676      485.08941    
     61600  -42857.84       272.64215     -42585.198      187.5307       187.49963      485.27491    
     61700  -42840.82       272.91347     -42567.907      187.51188      187.48489      485.46041    
     61800  -42817.594      270.08292     -42547.511      187.49583      187.46722      485.64592    
     61900  -42800.736      276.83008     -42523.906      187.47985      187.45144      485.83142    
     62000  -42777.395      277.10712     -42500.288      187.46087      187.43656      486.01692    
     62100  -42756.59       272.99503     -42483.595      187.44646      187.41846      486.20242    
     62200  -42739.299      270.44953     -42468.849      187.43087      187.40173      486.38793    
     62300  -42722.871      273.08872     -42449.782      187.41368      187.38529      486.57343    
     62400  -42704.017      273.51338     -42430.503      187.39977      187.3676       486.75893    
     62500  -42682.124      269.67011     -42412.454      187.38243      187.35229      486.94443    
     62600  -42668.152      271.63582     -42396.516      187.36469      187.33749      487.12994    
     62700  -42645.943      270.01909     -42375.924      187.34943      187.32114      487.31544    
     62800  -42621.138      274.4258      -42346.712      187.33258      187.30531      487.50094    
     62900  -42595.354      273.11454     -42322.24       187.3176       187.28866      487.68644    
     63000  -42578.181      273.95091     -42304.23       187.30354      187.27077      487.87195    
     63100  -42563.716      276.97738     -42286.738      187.28701      187.25504      488.05745    
     63200  -42546.424      278.28164     -42268.142      187.27136      187.23898      488.24295    
     63300  -42521.822      273.20434     -42248.617      187.25497      187.22321      488.42846    
     63400  -42502.604      273.80113     -42228.803      187.23784      187.2101       488.61396    
     63500  -42480.092      270.48685     -42209.605      187.22257      187.19308      488.79946    
     63600  -42464.611      269.47022     -42195.141      187.20744      187.17687      488.98496    
     63700  -42440.797      269.31062     -42171.486      187.19222      187.16187      489.17047    
     63800  -42418.911      274.42477     -42144.486      187.17736      187.14439      489.35597    
     63900  -42391.5        271.24372     -42120.256      187.16133      187.12984      489.54147    
     64000  -42377.047      276.65281     -42100.394      187.14529      187.11625      489.72697    
     64100  -42354.768      275.34458     -42079.423      187.12932      187.09953      489.91248    
     64200  -42335.839      276.61105     -42059.228      187.11388      187.08544      490.09798    
     64300  -42316.603      276.86647     -42039.737      187.09884      187.07013      490.28348    
     64400  -42291.433      271.76068     -42019.672      187.08383      187.05316      490.46898    
     64500  -42273.573      275.71067     -41997.862      187.06819      187.03898      490.65449    
     64600  -42248.951      273.61595     -41975.335      187.0527       187.02368      490.83999    
     64700  -42227.56       274.4922      -41953.068      187.0371       187.00794      491.02549    
     64800  -42205.296      273.30881     -41931.987      187.02102      186.99357      491.21099    
     64900  -42183.786      272.04031     -41911.746      187.00656      186.97721      491.3965     
     65000  -42168.132      277.23709     -41890.895      186.99102      186.96084      491.582      
     65100  -42143.358      275.4638      -41867.894      186.9751       186.94609      491.7675     
     65200  -42120.207      274.48475     -41845.722      186.96025      186.93         491.95301    
     65300  -42098.509      272.7906      -41825.718      186.94318      186.91511      492.13851    
     65400  -42082.068      275.88786     -41806.18       186.92739      186.90025      492.32401    
     65500  -42059.791      276.94865     -41782.843      186.91393      186.88357      492.50951    
     65600  -42037.259      278.13157     -41759.128      186.89728      186.86736      492.69502    
     65700  -42007.905      270.00762     -41737.898      186.88259      186.85126      492.88052    
     65800  -41989.876      272.31077     -41717.565      186.86863      186.8353       493.06602    
     65900  -41967.212      272.91072     -41694.301      186.84974      186.82032      493.25152    
     66000  -41945.542      275.61179     -41669.931      186.83458      186.80559      493.43703    
     66100  -41918.142      272.78225     -41645.36       186.82         186.78985      493.62253    
     66200  -41898.287      273.6853      -41624.601      186.80292      186.77367      493.80803    
     66300  -41874.282      272.15311     -41602.129      186.78938      186.75687      493.99353    
     66400  -41854.574      276.544       -41578.03       186.77451      186.74142      494.17904    
     66500  -41831.776      273.80633     -41557.969      186.75702      186.72561      494.36454    
     66600  -41807.401      270.82158     -41536.579      186.74177      186.71042      494.55004    
     66700  -41783.823      271.26024     -41512.563      186.72562      186.69626      494.73554    
     66800  -41763.063      275.81114     -41487.252      186.70928      186.67993      494.92105    
     66900  -41737.858      274.3686      -41463.489      186.69497      186.6637       495.10655    
     67000  -41716.964      277.94845     -41439.016      186.6792       186.6487       495.29205    
     67100  -41692.558      276.23782     -41416.32       186.66261      186.63247      495.47756    
     67200  -41669.089      273.95023     -41395.139      186.64759      186.61694      495.66306    
     67300  -41644.517      272.41799     -41372.099      186.63044      186.60318      495.84856    
     67400  -41619.722      272.87478     -41346.847      186.61429      186.5866       496.03406    
     67500  -41597.119      275.20469     -41321.915      186.60009      186.56942      496.21957    
     67600  -41572.875      273.04907     -41299.826      186.58331      186.55431      496.40507    
     67700  -41554.266      277.25715     -41277.009      186.56897      186.53703      496.59057    
     67800  -41528.295      277.1783      -41251.116      186.5521       186.52042      496.77607    
     67900  -41504.902      276.29471     -41228.607      186.53401      186.50735      496.96158    
     68000  -41477.729      272.26139     -41205.468      186.51813      186.49035      497.14708    
     68100  -41455.7        275.68636     -41180.014      186.50102      186.4735       497.33258    
     68200  -41427.245      273.58604     -41153.659      186.48544      186.45789      497.51808    
     68300  -41403.752      274.74308     -41129.009      186.47131      186.43865      497.70359    
     68400  -41375.408      272.19205     -41103.216      186.45442      186.42223      497.88909    
     68500  -41353.3        274.70721     -41078.592      186.43784      186.4066       498.07459    
[...]
     81600  -49565.51       261.13261     -49304.378      185.18202      184.89017      522.37544    
     81700  -49554.196      257.30803     -49296.888      185.20235      184.90675      522.56094    
     81800  -49551.248      283.83062     -49267.417      185.22055      184.92773      522.74644    
     81900  -49540.703      287.14503     -49253.558      185.22842      184.94672      522.93195    
     82000  -49556.202      284.2075      -49271.994      185.2315       184.96553      523.11745    
     82100  -49580.888      273.58091     -49307.307      185.23319      184.98141      523.30295    
     82200  -49595.045      257.88968     -49337.155      185.23255      184.98659      523.48845    
     82300  -49606.037      264.50738     -49341.529      185.23252      184.98839      523.67396    
     82400  -49602.598      275.60606     -49326.992      185.22908      184.99307      523.85946    
     82500  -49607.019      288.96122     -49318.058      185.2246       184.99292      524.04496    
     82600  -49618.435      280.45263     -49337.983      185.22281      184.99141      524.23046    
     82700  -49628.401      263.07468     -49365.326      185.22157      184.99264      524.41597    
     82800  -49633.94       260.97028     -49372.97       185.21919      184.9982       524.60147    
     82900  -49634.448      274.25633     -49360.191      185.21898      185.00196      524.78697    
     83000  -49638.221      289.2235      -49348.997      185.22071      185.00868      524.97248    
     83100  -49646.645      279.42376     -49367.221      185.22421      185.01747      525.15798    
     83200  -49651.857      259.19223     -49392.664      185.23099      185.02624      525.34348    
     83300  -49653.876      261.07151     -49392.805      185.24059      185.03326      525.52898    
     83400  -49645.432      277.81706     -49367.615      185.24918      185.04234      525.71449    
     83500  -49639.975      288.16637     -49351.809      185.25772      185.05195      525.89999    
     83600  -49644.369      279.96494     -49364.404      185.26613      185.05956      526.08549    
     83700  -49643.847      257.70521     -49386.142      185.26506      185.06951      526.27099    
     83800  -49635.581      252.72699     -49382.854      185.25888      185.08503      526.4565     
     83900  -49616.213      267.41397     -49348.799      185.24665      185.09879      526.642      
     84000  -49596.482      285.16454     -49311.318      185.23325      185.11055      526.8275     
     84100  -49593.413      290.27841     -49303.135      185.218        185.1269       527.013      
     84200  -49597.981      274.35007     -49323.631      185.19746      185.14317      527.19851    
     84300  -49613.452      266.37253     -49347.079      185.18421      185.15397      527.38401    
     84400  -49619.581      264.62721     -49354.954      185.17597      185.16334      527.56951    
     84500  -49622.115      274.04702     -49348.068      185.16584      185.17318      527.75502    
     84600  -49624.51       281.54803     -49342.962      185.1565       185.18556      527.94052    
     84700  -49629.007      276.28788     -49352.719      185.15156      185.19425      528.12602    
     84800  -49639.228      269.1312      -49370.096      185.1521       185.19946      528.31152    
     84900  -49644.074      265.91862     -49378.155      185.15385      185.2052       528.49703    
     85000  -49647.361      274.38349     -49372.978      185.15558      185.20909      528.68253    
     85100  -49651.284      282.76149     -49368.523      185.15806      185.21334      528.86803    
     85200  -49655.049      277.68198     -49377.367      185.1602       185.22019      529.05353    
     85300  -49661.703      269.62071     -49392.082      185.16224      185.22929      529.23904    
     85400  -49662.887      265.60912     -49397.278      185.16635      185.24099      529.42454    
     85500  -49658.649      271.89284     -49386.756      185.1721       185.25289      529.61004    
     85600  -49653.818      282.00124     -49371.817      185.17925      185.2694       529.79554    
     85700  -49651.821      279.99545     -49371.825      185.18602      185.2908       529.98105    
     85800  -49648.534      266.37927     -49382.154      185.19338      185.31655      530.16655    
     85900  -49645.832      267.43965     -49378.392      185.20261      185.34769      530.35205    
     86000  -49641.445      279.34916     -49362.096      185.21362      185.3859       530.53755    
     86100  -49627.773      276.18014     -49351.593      185.22904      185.42733      530.72306    
     86200  -49627.661      277.37825     -49350.283      185.24719      185.47112      530.90856    
     86300  -49620.886      267.34056     -49353.545      185.26463      185.52116      531.09406    
     86400  -49612.993      265.66584     -49347.327      185.2818       185.57587      531.27957    
     86500  -49598.573      269.34005     -49329.233      185.29717      185.62969      531.46507    
     86600  -49572.624      269.94806     -49302.676      185.31086      185.68541      531.65057    
     86700  -49558.264      280.70493     -49277.559      185.31907      185.74139      531.83607    
     86800  -49547.568      280.85552     -49266.713      185.31957      185.7932       532.02158    
     86900  -49553.347      281.54344     -49271.804      185.31328      185.84536      532.20708    
     87000  -49562.286      274.31629     -49287.969      185.30084      185.88909      532.39258    
     87100  -49570.476      267.0033      -49303.473      185.28328      185.92652      532.57808    
     87200  -49579.787      271.08803     -49308.699      185.26297      185.95945      532.76359    
     87300  -49583.858      276.2655      -49307.592      185.23939      185.98664      532.94909    
     87400  -49589.334      279.70796     -49309.626      185.21299      186.01429      533.13459    
     87500  -49603.838      279.63966     -49324.199      185.18448      186.04276      533.32009    
     87600  -49620.15       273.99138     -49346.158      185.15482      186.07219      533.5056     
     87700  -49626.19       264.15563     -49362.034      185.12917      186.10476      533.6911     
     87800  -49630.373      269.00954     -49361.364      185.10622      186.14153      533.8766     
     87900  -49634.037      279.36101     -49354.676      185.08388      186.18559      534.0621     
     88000  -49641.524      282.94323     -49358.581      185.06586      186.23303      534.24761    
     88100  -49650.663      272.74117     -49377.922      185.0546       186.281        534.43311    
     88200  -49661.179      266.97576     -49394.203      185.0462       186.33774      534.61861    
     88300  -49664.012      267.29465     -49396.717      185.03818      186.4026       534.80412    
     88400  -49673.526      278.87137     -49394.654      185.03404      186.47039      534.98962    
     88500  -49673.545      274.03017     -49399.515      185.03699      186.54522      535.17512    
     88600  -49665.937      260.8681      -49405.069      185.04271      186.62422      535.36062    
     88700  -49659.005      263.09907     -49395.906      185.0501       186.70627      535.54613    
     88800  -49642.062      271.43169     -49370.63       185.05727      186.79489      535.73163    
     88900  -49625.953      280.30663     -49345.646      185.06373      186.88507      535.91713    
     89000  -49609.103      276.19072     -49332.913      185.06942      186.9751       536.10263    
     89100  -49598.417      272.34846     -49326.068      185.07288      187.06618      536.28814    
     89200  -49589.19       273.47883     -49315.712      185.07318      187.15706      536.47364    
     89300  -49577.531      274.43941     -49303.091      185.0666       187.24937      536.65914    
     89400  -49571.951      279.20091     -49292.75       185.05528      187.34158      536.84464    
     89500  -49572.896      280.3432      -49292.552      185.04485      187.42447      537.03015    
     89600  -49584.418      278.50242     -49305.916      185.03254      187.50314      537.21565    
     89700  -49600.861      272.00058     -49328.86       185.01618      187.58247      537.40115    
     89800  -49613.666      268.01825     -49345.648      184.99797      187.65617      537.58666    
     89900  -49623.281      271.53751     -49351.743      184.98012      187.72763      537.77216    
     90000  -49633.828      279.3836      -49354.445      184.95846      187.8021       537.95766    
     90100  -49642.59       277.8105      -49364.779      184.93747      187.87814      538.14316    
     90200  -49651.769      270.15836     -49381.61       184.91593      187.9542       538.32867    
     90300  -49661.251      269.3941      -49391.857      184.89176      188.03844      538.51417    
     90400  -49667.243      272.47689     -49394.766      184.86544      188.12795      538.69967    
     90500  -49674.937      278.18563     -49396.752      184.84206      188.21761      538.88517    
     90600  -49680.808      274.61811     -49406.189      184.81922      188.31286      539.07068    
     90700  -49685.518      268.71623     -49416.802      184.7977       188.41652      539.25618    
     90800  -49685.403      267.28328     -49418.12       184.77973      188.521        539.44168    
     90900  -49672.663      268.57385     -49404.089      184.76709      188.62922      539.62718    
     91000  -49666.236      279.97692     -49386.259      184.75696      188.74532      539.81269    
     91100  -49664.829      280.45561     -49384.374      184.74978      188.86098      539.99819    
     91200  -49665.425      269.86348     -49395.561      184.752        188.97479      540.18369    
     91300  -49667.293      265.90289     -49401.39       184.75961      189.09098      540.36919    
     91400  -49658.647      267.9588      -49390.688      184.76789      189.20688      540.5547     
     91500  -49638.307      272.79485     -49365.512      184.78043      189.31956      540.7402     
     91600  -49622.691      281.40677     -49341.284      184.79698      189.42776      540.9257     
     91700  -49609.344      277.50533     -49331.839      184.80898      189.53267      541.11121    
     91800  -49597.892      269.47205     -49328.419      184.81956      189.63315      541.29671    
     91900  -49587.16       270.54722     -49316.613      184.82797      189.72579      541.48221    
     92000  -49579.001      281.81067     -49297.19       184.82916      189.81131      541.66771    
     92100  -49565.925      282.03201     -49283.893      184.82806      189.8883       541.85322    
     92200  -49573.016      283.59597     -49289.42       184.82055      189.95592      542.03872    
     92300  -49586.103      273.09015     -49313.013      184.80567      190.0203       542.22422    
     92400  -49600.265      264.54        -49335.725      184.78641      190.07982      542.40972    
     92500  -49609.174      265.47369     -49343.7        184.76588      190.13359      542.59523    
     92600  -49611.237      271.56321     -49339.674      184.74698      190.18557      542.78073    
     92700  -49613.263      279.53983     -49333.723      184.72589      190.23769      542.96623    
     92800  -49609.564      274.90438     -49334.66       184.7065       190.29137      543.15173    
     92900  -49607.364      269.34501     -49338.019      184.68945      190.34771      543.33724    
     93000  -49608.966      273.81761     -49335.148      184.67527      190.4091       543.52274    
     93100  -49607.496      278.04554     -49329.45       184.66277      190.47304      543.70824    
     93200  -49606.093      277.17835     -49328.915      184.65533      190.53837      543.89374    
     93300  -49610.435      273.7444      -49336.691      184.65171      190.6037       544.07925    
     93400  -49614.98       269.44215     -49345.537      184.64777      190.67373      544.26475    
     93500  -49613.797      267.1291      -49346.668      184.64657      190.74416      544.45025    
     93600  -49613.185      272.67581     -49340.51       184.651        190.80943      544.63576    
     93700  -49615.296      277.0859      -49338.21       184.65616      190.87417      544.82126    
     93800  -49625.054      279.58616     -49345.468      184.66093      190.94305      545.00676    
     93900  -49625.211      268.0364      -49357.174      184.66777      191.00685      545.19226    
     94000  -49631.718      269.57352     -49362.144      184.67712      191.06685      545.37777    
     94100  -49626.451      268.7548      -49357.696      184.68856      191.12642      545.56327    
     94200  -49627.974      278.21797     -49349.756      184.69918      191.18245      545.74877    
     94300  -49631.455      279.34139     -49352.113      184.71283      191.23371      545.93427    
     94400  -49634.355      271.04658     -49363.308      184.73013      191.27945      546.11978    
     94500  -49633.342      266.08138     -49367.26       184.74761      191.32032      546.30528    
     94600  -49627.806      270.60089     -49357.205      184.7644       191.35854      546.49078    
     94700  -49615.789      275.71051     -49340.078      184.77952      191.39272      546.67628    
     94800  -49609.346      281.95407     -49327.392      184.79171      191.41995      546.86179    
     94900  -49607.091      279.97757     -49327.113      184.79978      191.44412      547.04729    
     95000  -49601.289      269.37971     -49331.909      184.80206      191.4607       547.23279    
     95100  -49602.029      270.47226     -49331.557      184.79878      191.4691       547.4183     
     95200  -49597.392      271.94663     -49325.445      184.79189      191.47289      547.6038     
     95300  -49600.106      279.37008     -49320.736      184.77554      191.47411      547.7893     
     95400  -49607.463      279.08545     -49328.377      184.75035      191.47144      547.9748     
     95500  -49611.666      268.80161     -49342.865      184.72286      191.46376      548.16031    
     95600  -49620.03       267.90804     -49352.122      184.69073      191.45484      548.34581    
     95700  -49630.587      276.14503     -49354.442      184.65293      191.44353      548.53131    
     95800  -49637.391      279.66548     -49357.725      184.61718      191.43051      548.71681    
     95900  -49642.866      272.3802      -49370.486      184.58179      191.41793      548.90232    
     96000  -49652.953      266.19302     -49386.76       184.54452      191.41253      549.08782    
     96100  -49660.407      265.57287     -49394.834      184.50853      191.41198      549.27332    
     96200  -49658.172      268.97669     -49389.195      184.47663      191.41548      549.45882    
     96300  -49655.809      279.29421     -49376.515      184.44816      191.42732      549.64433    
     96400  -49645.687      275.53914     -49370.148      184.42147      191.44881      549.82983    
     96500  -49642.587      272.34619     -49370.241      184.4005       191.47561      550.01533    
     96600  -49645.717      275.29353     -49370.423      184.38713      191.50819      550.20083    
     96700  -49642.335      273.75634     -49368.579      184.37252      191.54498      550.38634    
     96800  -49639.477      273.89603     -49365.581      184.36128      191.58947      550.57184    
     96900  -49643.473      278.67257     -49364.8        184.35578      191.63568      550.75734    
     97000  -49641.667      274.11595     -49367.551      184.35205      191.68194      550.94285    
     97100  -49644.462      274.175       -49370.287      184.34962      191.73493      551.12835    
     97200  -49642.331      273.64508     -49368.686      184.34871      191.79229      551.31385    
     97300  -49641.484      278.97969     -49362.504      184.34978      191.84719      551.49935    
     97400  -49637.501      278.87467     -49358.626      184.35098      191.90589      551.68486    
     97500  -49636.551      275.27889     -49361.272      184.35097      191.96904      551.87036    
     97600  -49640.1        272.39926     -49367.701      184.35294      192.02802      552.05586    
     97700  -49640.793      269.79228     -49371.001      184.35894      192.08591      552.24136    
     97800  -49644.918      274.24849     -49370.669      184.36667      192.1452       552.42687    
     97900  -49643.184      273.4809      -49369.703      184.37401      192.207        552.61237    
     98000  -49634.7        268.8353      -49365.865      184.38509      192.26619      552.79787    
     98100  -49629.857      272.08083     -49357.776      184.39771      192.32515      552.98337    
     98200  -49620.592      273.23677     -49347.355      184.40665      192.38644      553.16888    
     98300  -49611.745      274.02963     -49337.715      184.41443      192.44259      553.35438    
     98400  -49605.913      275.33744     -49330.575      184.42362      192.49702      553.53988    
     98500  -49601.581      274.47146     -49327.11       184.42827      192.5526       553.72538    
     98600  -49606.91       278.63233     -49328.277      184.42883      192.61003      553.91089    
     98700  -49607.347      274.03115     -49333.316      184.43518      192.66182      554.09639    
     98800  -49611.665      272.20692     -49339.458      184.44216      192.7081       554.28189    
     98900  -49615.752      270.0254      -49345.726      184.44719      192.75235      554.4674     
     99000  -49619.985      269.61851     -49350.366      184.45387      192.79365      554.6529     
     99100  -49616.198      268.39038     -49347.808      184.46153      192.82882      554.8384     
     99200  -49613.449      275.43657     -49338.013      184.47213      192.86038      555.0239     
     99300  -49611.814      280.25031     -49331.564      184.47816      192.8918       555.20941    
     99400  -49615.31       277.2344      -49338.075      184.48144      192.9175       555.39491    
     99500  -49624.08       272.63305     -49351.447      184.48633      192.93406      555.58041    
     99600  -49625.587      266.31175     -49359.275      184.48922      192.948        555.76591    
     99700  -49623.027      268.08682     -49354.94       184.48915      192.95744      555.95142    
     99800  -49620.397      276.50221     -49343.895      184.4869       192.96448      556.13692    
     99900  -49618.567      280.42673     -49338.141      184.48346      192.97234      556.32242    
    100000  -49618.12       274.31484     -49343.805      184.47576      192.98326      556.50792    
Loop time of 55254.2 on 12 procs for 100000 steps with 7056 atoms

Performance: 0.156 ns/day, 153.484 hours/ns, 1.810 timesteps/s, 12.770 katom-step/s
38.0% CPU use with 12 MPI tasks x 1 OpenMP threads

MPI task timing breakdown:
Section |  min time  |  avg time  |  max time  |%varavg| %total
---------------------------------------------------------------
Pair    | 1303.4     | 1717.9     | 2316.3     | 624.5 |  3.11
Neigh   | 10.656     | 19.082     | 33.532     | 156.0 |  0.03
Comm    | 8797.4     | 9599.8     | 10677      | 588.1 | 17.37
Output  | 164.19     | 169        | 173.24     |  22.0 |  0.31
Modify  | 38138      | 38923      | 39512      | 198.4 | 70.44
Other   |            | 4826       |            |       |  8.73

Nlocal:            588 ave        2717 max          39 min
Histogram: 7 2 0 0 2 0 0 0 0 1
Nghost:        1899.08 ave        3587 max         580 min
Histogram: 1 2 2 3 0 1 0 0 0 3
Neighs:              0 ave           0 max           0 min
Histogram: 12 0 0 0 0 0 0 0 0 0

Total # of neighbors = 0
Ave neighs/atom = 0
Neighbor list builds = 1328
Dangerous builds = 0
Total wall time: 15:20:58
