# LAMMPS data file written by OVITO Basic 3.3.5
784 atoms
2 atom types
-100 100 xlo xhi
-100 100 ylo yhi
-2.3312511101 38.8915581101 zlo zhi

Masses

1 12.0107  # CNT
2 12.0107  # C60

Atoms  # atomic

1 1 5.347606 0.0 0.0
2 1 5.165391 -1.384062 0.0
3 1 3.781329 -3.781329 0.0
4 1 2.673803 -4.631163 0.0
5 1 0.0 -5.347606 0.0
6 1 -1.384062 -5.165391 0.0
7 1 -3.781329 -3.781329 0.0
8 1 -4.631163 -2.673803 0.0
9 1 -5.347606 0.0 0.0
10 1 -5.165391 1.384062 0.0
11 1 -3.781329 3.781329 0.0
12 1 -2.673803 4.631163 0.0
13 1 0.0 5.347606 0.0
14 1 1.384062 5.165391 0.0
15 1 3.781329 3.781329 0.0
16 1 4.631163 2.673803 0.0
17 1 4.940544 -2.04644 1.212436
18 1 4.242541 -3.255416 1.212436
19 1 2.04644 -4.940544 1.212436
20 1 0.698003 -5.301857 1.212436
21 1 -2.04644 -4.940544 1.212436
22 1 -3.255416 -4.242541 1.212436
23 1 -4.940544 -2.04644 1.212436
24 1 -5.301857 -0.698003 1.212436
25 1 -4.940544 2.04644 1.212436
26 1 -4.242541 3.255416 1.212436
27 1 -2.04644 4.940544 1.212436
28 1 -0.698003 5.301857 1.212436
29 1 2.04644 4.940544 1.212436
30 1 3.255416 4.242541 1.212436
31 1 4.940544 2.04644 1.212436
32 1 5.301857 0.698003 1.212436
33 1 3.781329 -3.781329 2.424871
34 1 2.673803 -4.631163 2.424871
35 1 0.0 -5.347606 2.424871
36 1 -1.384062 -5.165391 2.424871
37 1 -3.781329 -3.781329 2.424871
38 1 -4.631163 -2.673803 2.424871
39 1 -5.347606 0.0 2.424871
40 1 -5.165391 1.384062 2.424871
41 1 -3.781329 3.781329 2.424871
42 1 -2.673803 4.631163 2.424871
43 1 0.0 5.347606 2.424871
44 1 1.384062 5.165391 2.424871
45 1 3.781329 3.781329 2.424871
46 1 4.631163 2.673803 2.424871
47 1 5.347606 0.0 2.424871
48 1 5.165391 -1.384062 2.424871
49 1 2.04644 -4.940544 3.637307
50 1 0.698003 -5.301857 3.637307
51 1 -2.04644 -4.940544 3.637307
52 1 -3.255416 -4.242541 3.637307
53 1 -4.940544 -2.04644 3.637307
54 1 -5.301857 -0.698003 3.637307
55 1 -4.940544 2.04644 3.637307
56 1 -4.242541 3.255416 3.637307
57 1 -2.04644 4.940544 3.637307
58 1 -0.698003 5.301857 3.637307
59 1 2.04644 4.940544 3.637307
60 1 3.255416 4.242541 3.637307
61 1 4.940544 2.04644 3.637307
62 1 5.301857 0.698003 3.637307
63 1 4.940544 -2.04644 3.637307
64 1 4.242541 -3.255416 3.637307
65 1 0.0 -5.347606 4.849742
66 1 -1.384062 -5.165391 4.849742
67 1 -3.781329 -3.781329 4.849742
68 1 -4.631163 -2.673803 4.849742
69 1 -5.347606 0.0 4.849742
70 1 -5.165391 1.384062 4.849742
71 1 -3.781329 3.781329 4.849742
72 1 -2.673803 4.631163 4.849742
73 1 0.0 5.347606 4.849742
74 1 1.384062 5.165391 4.849742
75 1 3.781329 3.781329 4.849742
76 1 4.631163 2.673803 4.849742
77 1 5.347606 0.0 4.849742
78 1 5.165391 -1.384062 4.849742
79 1 3.781329 -3.781329 4.849742
80 1 2.673803 -4.631163 4.849742
81 1 -2.04644 -4.940544 6.062178
82 1 -3.255416 -4.242541 6.062178
83 1 -4.940544 -2.04644 6.062178
84 1 -5.301857 -0.698003 6.062178
85 1 -4.940544 2.04644 6.062178
86 1 -4.242541 3.255416 6.062178
87 1 -2.04644 4.940544 6.062178
88 1 -0.698003 5.301857 6.062178
89 1 2.04644 4.940544 6.062178
90 1 3.255416 4.242541 6.062178
91 1 4.940544 2.04644 6.062178
92 1 5.301857 0.698003 6.062178
93 1 4.940544 -2.04644 6.062178
94 1 4.242541 -3.255416 6.062178
95 1 2.04644 -4.940544 6.062178
96 1 0.698003 -5.301857 6.062178
97 1 -3.781329 -3.781329 7.274613
98 1 -4.631163 -2.673803 7.274613
99 1 -5.347606 0.0 7.274613
100 1 -5.165391 1.384062 7.274613
101 1 -3.781329 3.781329 7.274613
102 1 -2.673803 4.631163 7.274613
103 1 0.0 5.347606 7.274613
104 1 1.384062 5.165391 7.274613
105 1 3.781329 3.781329 7.274613
106 1 4.631163 2.673803 7.274613
107 1 5.347606 0.0 7.274613
108 1 5.165391 -1.384062 7.274613
109 1 3.781329 -3.781329 7.274613
110 1 2.673803 -4.631163 7.274613
111 1 0.0 -5.347606 7.274613
112 1 -1.384062 -5.165391 7.274613
113 1 -4.940544 -2.04644 8.487049
114 1 -5.301857 -0.698003 8.487049
115 1 -4.940544 2.04644 8.487049
116 1 -4.242541 3.255416 8.487049
117 1 -2.04644 4.940544 8.487049
118 1 -0.698003 5.301857 8.487049
119 1 2.04644 4.940544 8.487049
120 1 3.255416 4.242541 8.487049
121 1 4.940544 2.04644 8.487049
122 1 5.301857 0.698003 8.487049
123 1 4.940544 -2.04644 8.487049
124 1 4.242541 -3.255416 8.487049
125 1 2.04644 -4.940544 8.487049
126 1 0.698003 -5.301857 8.487049
127 1 -2.04644 -4.940544 8.487049
128 1 -3.255416 -4.242541 8.487049
129 1 -5.347606 0.0 9.699485
130 1 -5.165391 1.384062 9.699485
131 1 -3.781329 3.781329 9.699485
132 1 -2.673803 4.631163 9.699485
133 1 0.0 5.347606 9.699485
134 1 1.384062 5.165391 9.699485
135 1 3.781329 3.781329 9.699485
136 1 4.631163 2.673803 9.699485
137 1 5.347606 0.0 9.699485
138 1 5.165391 -1.384062 9.699485
139 1 3.781329 -3.781329 9.699485
140 1 2.673803 -4.631163 9.699485
141 1 0.0 -5.347606 9.699485
142 1 -1.384062 -5.165391 9.699485
143 1 -3.781329 -3.781329 9.699485
144 1 -4.631163 -2.673803 9.699485
145 1 -4.940544 2.04644 10.91192
146 1 -4.242541 3.255416 10.91192
147 1 -2.04644 4.940544 10.91192
148 1 -0.698003 5.301857 10.91192
149 1 2.04644 4.940544 10.91192
150 1 3.255416 4.242541 10.91192
151 1 4.940544 2.04644 10.91192
152 1 5.301857 0.698003 10.91192
153 1 4.940544 -2.04644 10.91192
154 1 4.242541 -3.255416 10.91192
155 1 2.04644 -4.940544 10.91192
156 1 0.698003 -5.301857 10.91192
157 1 -2.04644 -4.940544 10.91192
158 1 -3.255416 -4.242541 10.91192
159 1 -4.940544 -2.04644 10.91192
160 1 -5.301857 -0.698003 10.91192
161 1 -3.781329 3.781329 12.124356
162 1 -2.673803 4.631163 12.124356
163 1 0.0 5.347606 12.124356
164 1 1.384062 5.165391 12.124356
165 1 3.781329 3.781329 12.124356
166 1 4.631163 2.673803 12.124356
167 1 5.347606 0.0 12.124356
168 1 5.165391 -1.384062 12.124356
169 1 3.781329 -3.781329 12.124356
170 1 2.673803 -4.631163 12.124356
171 1 0.0 -5.347606 12.124356
172 1 -1.384062 -5.165391 12.124356
173 1 -3.781329 -3.781329 12.124356
174 1 -4.631163 -2.673803 12.124356
175 1 -5.347606 0.0 12.124356
176 1 -5.165391 1.384062 12.124356
177 1 -2.04644 4.940544 13.336791
178 1 -0.698003 5.301857 13.336791
179 1 2.04644 4.940544 13.336791
180 1 3.255416 4.242541 13.336791
181 1 4.940544 2.04644 13.336791
182 1 5.301857 0.698003 13.336791
183 1 4.940544 -2.04644 13.336791
184 1 4.242541 -3.255416 13.336791
185 1 2.04644 -4.940544 13.336791
186 1 0.698003 -5.301857 13.336791
187 1 -2.04644 -4.940544 13.336791
188 1 -3.255416 -4.242541 13.336791
189 1 -4.940544 -2.04644 13.336791
190 1 -5.301857 -0.698003 13.336791
191 1 -4.940544 2.04644 13.336791
192 1 -4.242541 3.255416 13.336791
193 1 0.0 5.347606 14.549227
194 1 1.384062 5.165391 14.549227
195 1 3.781329 3.781329 14.549227
196 1 4.631163 2.673803 14.549227
197 1 5.347606 0.0 14.549227
198 1 5.165391 -1.384062 14.549227
199 1 3.781329 -3.781329 14.549227
200 1 2.673803 -4.631163 14.549227
201 1 0.0 -5.347606 14.549227
202 1 -1.384062 -5.165391 14.549227
203 1 -3.781329 -3.781329 14.549227
204 1 -4.631163 -2.673803 14.549227
205 1 -5.347606 0.0 14.549227
206 1 -5.165391 1.384062 14.549227
207 1 -3.781329 3.781329 14.549227
208 1 -2.673803 4.631163 14.549227
209 1 2.04644 4.940544 15.761662
210 1 3.255416 4.242541 15.761662
211 1 4.940544 2.04644 15.761662
212 1 5.301857 0.698003 15.761662
213 1 4.940544 -2.04644 15.761662
214 1 4.242541 -3.255416 15.761662
215 1 2.04644 -4.940544 15.761662
216 1 0.698003 -5.301857 15.761662
217 1 -2.04644 -4.940544 15.761662
218 1 -3.255416 -4.242541 15.761662
219 1 -4.940544 -2.04644 15.761662
220 1 -5.301857 -0.698003 15.761662
221 1 -4.940544 2.04644 15.761662
222 1 -4.242541 3.255416 15.761662
223 1 -2.04644 4.940544 15.761662
224 1 -0.698003 5.301857 15.761662
225 1 3.781329 3.781329 16.974098
226 1 4.631163 2.673803 16.974098
227 1 5.347606 0.0 16.974098
228 1 5.165391 -1.384062 16.974098
229 1 3.781329 -3.781329 16.974098
230 1 2.673803 -4.631163 16.974098
231 1 0.0 -5.347606 16.974098
232 1 -1.384062 -5.165391 16.974098
233 1 -3.781329 -3.781329 16.974098
234 1 -4.631163 -2.673803 16.974098
235 1 -5.347606 0.0 16.974098
236 1 -5.165391 1.384062 16.974098
237 1 -3.781329 3.781329 16.974098
238 1 -2.673803 4.631163 16.974098
239 1 0.0 5.347606 16.974098
240 1 1.384062 5.165391 16.974098
241 1 4.940544 2.04644 18.186533
242 1 5.301857 0.698003 18.186533
243 1 4.940544 -2.04644 18.186533
244 1 4.242541 -3.255416 18.186533
245 1 2.04644 -4.940544 18.186533
246 1 0.698003 -5.301857 18.186533
247 1 -2.04644 -4.940544 18.186533
248 1 -3.255416 -4.242541 18.186533
249 1 -4.940544 -2.04644 18.186533
250 1 -5.301857 -0.698003 18.186533
251 1 -4.940544 2.04644 18.186533
252 1 -4.242541 3.255416 18.186533
253 1 -2.04644 4.940544 18.186533
254 1 -0.698003 5.301857 18.186533
255 1 2.04644 4.940544 18.186533
256 1 3.255416 4.242541 18.186533
257 1 5.347606 0.0 19.398969
258 1 5.165391 -1.384062 19.398969
259 1 3.781329 -3.781329 19.398969
260 1 2.673803 -4.631163 19.398969
261 1 0.0 -5.347606 19.398969
262 1 -1.384062 -5.165391 19.398969
263 1 -3.781329 -3.781329 19.398969
264 1 -4.631163 -2.673803 19.398969
265 1 -5.347606 0.0 19.398969
266 1 -5.165391 1.384062 19.398969
267 1 -3.781329 3.781329 19.398969
268 1 -2.673803 4.631163 19.398969
269 1 0.0 5.347606 19.398969
270 1 1.384062 5.165391 19.398969
271 1 3.781329 3.781329 19.398969
272 1 4.631163 2.673803 19.398969
273 1 4.940544 -2.04644 20.611405
274 1 4.242541 -3.255416 20.611405
275 1 2.04644 -4.940544 20.611405
276 1 0.698003 -5.301857 20.611405
277 1 -2.04644 -4.940544 20.611405
278 1 -3.255416 -4.242541 20.611405
279 1 -4.940544 -2.04644 20.611405
280 1 -5.301857 -0.698003 20.611405
281 1 -4.940544 2.04644 20.611405
282 1 -4.242541 3.255416 20.611405
283 1 -2.04644 4.940544 20.611405
284 1 -0.698003 5.301857 20.611405
285 1 2.04644 4.940544 20.611405
286 1 3.255416 4.242541 20.611405
287 1 4.940544 2.04644 20.611405
288 1 5.301857 0.698003 20.611405
289 1 3.781329 -3.781329 21.82384
290 1 2.673803 -4.631163 21.82384
291 1 0.0 -5.347606 21.82384
292 1 -1.384062 -5.165391 21.82384
293 1 -3.781329 -3.781329 21.82384
294 1 -4.631163 -2.673803 21.82384
295 1 -5.347606 0.0 21.82384
296 1 -5.165391 1.384062 21.82384
297 1 -3.781329 3.781329 21.82384
298 1 -2.673803 4.631163 21.82384
299 1 0.0 5.347606 21.82384
300 1 1.384062 5.165391 21.82384
301 1 3.781329 3.781329 21.82384
302 1 4.631163 2.673803 21.82384
303 1 5.347606 0.0 21.82384
304 1 5.165391 -1.384062 21.82384
305 1 2.04644 -4.940544 23.036276
306 1 0.698003 -5.301857 23.036276
307 1 -2.04644 -4.940544 23.036276
308 1 -3.255416 -4.242541 23.036276
309 1 -4.940544 -2.04644 23.036276
310 1 -5.301857 -0.698003 23.036276
311 1 -4.940544 2.04644 23.036276
312 1 -4.242541 3.255416 23.036276
313 1 -2.04644 4.940544 23.036276
314 1 -0.698003 5.301857 23.036276
315 1 2.04644 4.940544 23.036276
316 1 3.255416 4.242541 23.036276
317 1 4.940544 2.04644 23.036276
318 1 5.301857 0.698003 23.036276
319 1 4.940544 -2.04644 23.036276
320 1 4.242541 -3.255416 23.036276
321 1 0.0 -5.347606 24.248711
322 1 -1.384062 -5.165391 24.248711
323 1 -3.781329 -3.781329 24.248711
324 1 -4.631163 -2.673803 24.248711
325 1 -5.347606 0.0 24.248711
326 1 -5.165391 1.384062 24.248711
327 1 -3.781329 3.781329 24.248711
328 1 -2.673803 4.631163 24.248711
329 1 0.0 5.347606 24.248711
330 1 1.384062 5.165391 24.248711
331 1 3.781329 3.781329 24.248711
332 1 4.631163 2.673803 24.248711
333 1 5.347606 0.0 24.248711
334 1 5.165391 -1.384062 24.248711
335 1 3.781329 -3.781329 24.248711
336 1 2.673803 -4.631163 24.248711
337 1 -2.04644 -4.940544 25.461147
338 1 -3.255416 -4.242541 25.461147
339 1 -4.940544 -2.04644 25.461147
340 1 -5.301857 -0.698003 25.461147
341 1 -4.940544 2.04644 25.461147
342 1 -4.242541 3.255416 25.461147
343 1 -2.04644 4.940544 25.461147
344 1 -0.698003 5.301857 25.461147
345 1 2.04644 4.940544 25.461147
346 1 3.255416 4.242541 25.461147
347 1 4.940544 2.04644 25.461147
348 1 5.301857 0.698003 25.461147
349 1 4.940544 -2.04644 25.461147
350 1 4.242541 -3.255416 25.461147
351 1 2.04644 -4.940544 25.461147
352 1 0.698003 -5.301857 25.461147
353 1 -3.781329 -3.781329 26.673582
354 1 -4.631163 -2.673803 26.673582
355 1 -5.347606 0.0 26.673582
356 1 -5.165391 1.384062 26.673582
357 1 -3.781329 3.781329 26.673582
358 1 -2.673803 4.631163 26.673582
359 1 0.0 5.347606 26.673582
360 1 1.384062 5.165391 26.673582
361 1 3.781329 3.781329 26.673582
362 1 4.631163 2.673803 26.673582
363 1 5.347606 0.0 26.673582
364 1 5.165391 -1.384062 26.673582
365 1 3.781329 -3.781329 26.673582
366 1 2.673803 -4.631163 26.673582
367 1 0.0 -5.347606 26.673582
368 1 -1.384062 -5.165391 26.673582
369 1 -4.940544 -2.04644 27.886018
370 1 -5.301857 -0.698003 27.886018
371 1 -4.940544 2.04644 27.886018
372 1 -4.242541 3.255416 27.886018
373 1 -2.04644 4.940544 27.886018
374 1 -0.698003 5.301857 27.886018
375 1 2.04644 4.940544 27.886018
376 1 3.255416 4.242541 27.886018
377 1 4.940544 2.04644 27.886018
378 1 5.301857 0.698003 27.886018
379 1 4.940544 -2.04644 27.886018
380 1 4.242541 -3.255416 27.886018
381 1 2.04644 -4.940544 27.886018
382 1 0.698003 -5.301857 27.886018
383 1 -2.04644 -4.940544 27.886018
384 1 -3.255416 -4.242541 27.886018
385 1 -5.347606 0.0 29.098454
386 1 -5.165391 1.384062 29.098454
387 1 -3.781329 3.781329 29.098454
388 1 -2.673803 4.631163 29.098454
389 1 0.0 5.347606 29.098454
390 1 1.384062 5.165391 29.098454
391 1 3.781329 3.781329 29.098454
392 1 4.631163 2.673803 29.098454
393 1 5.347606 0.0 29.098454
394 1 5.165391 -1.384062 29.098454
395 1 3.781329 -3.781329 29.098454
396 1 2.673803 -4.631163 29.098454
397 1 0.0 -5.347606 29.098454
398 1 -1.384062 -5.165391 29.098454
399 1 -3.781329 -3.781329 29.098454
400 1 -4.631163 -2.673803 29.098454
401 1 -4.940544 2.04644 30.310889
402 1 -4.242541 3.255416 30.310889
403 1 -2.04644 4.940544 30.310889
404 1 -0.698003 5.301857 30.310889
405 1 2.04644 4.940544 30.310889
406 1 3.255416 4.242541 30.310889
407 1 4.940544 2.04644 30.310889
408 1 5.301857 0.698003 30.310889
409 1 4.940544 -2.04644 30.310889
410 1 4.242541 -3.255416 30.310889
411 1 2.04644 -4.940544 30.310889
412 1 0.698003 -5.301857 30.310889
413 1 -2.04644 -4.940544 30.310889
414 1 -3.255416 -4.242541 30.310889
415 1 -4.940544 -2.04644 30.310889
416 1 -5.301857 -0.698003 30.310889
417 1 -3.781329 3.781329 31.523325
418 1 -2.673803 4.631163 31.523325
419 1 0.0 5.347606 31.523325
420 1 1.384062 5.165391 31.523325
421 1 3.781329 3.781329 31.523325
422 1 4.631163 2.673803 31.523325
423 1 5.347606 0.0 31.523325
424 1 5.165391 -1.384062 31.523325
425 1 3.781329 -3.781329 31.523325
426 1 2.673803 -4.631163 31.523325
427 1 0.0 -5.347606 31.523325
428 1 -1.384062 -5.165391 31.523325
429 1 -3.781329 -3.781329 31.523325
430 1 -4.631163 -2.673803 31.523325
431 1 -5.347606 0.0 31.523325
432 1 -5.165391 1.384062 31.523325
433 1 -2.04644 4.940544 32.73576
434 1 -0.698003 5.301857 32.73576
435 1 2.04644 4.940544 32.73576
436 1 3.255416 4.242541 32.73576
437 1 4.940544 2.04644 32.73576
438 1 5.301857 0.698003 32.73576
439 1 4.940544 -2.04644 32.73576
440 1 4.242541 -3.255416 32.73576
441 1 2.04644 -4.940544 32.73576
442 1 0.698003 -5.301857 32.73576
443 1 -2.04644 -4.940544 32.73576
444 1 -3.255416 -4.242541 32.73576
445 1 -4.940544 -2.04644 32.73576
446 1 -5.301857 -0.698003 32.73576
447 1 -4.940544 2.04644 32.73576
448 1 -4.242541 3.255416 32.73576
449 1 0.0 5.347606 33.948196
450 1 1.384062 5.165391 33.948196
451 1 3.781329 3.781329 33.948196
452 1 4.631163 2.673803 33.948196
453 1 5.347606 0.0 33.948196
454 1 5.165391 -1.384062 33.948196
455 1 3.781329 -3.781329 33.948196
456 1 2.673803 -4.631163 33.948196
457 1 0.0 -5.347606 33.948196
458 1 -1.384062 -5.165391 33.948196
459 1 -3.781329 -3.781329 33.948196
460 1 -4.631163 -2.673803 33.948196
461 1 -5.347606 0.0 33.948196
462 1 -5.165391 1.384062 33.948196
463 1 -3.781329 3.781329 33.948196
464 1 -2.673803 4.631163 33.948196
465 1 2.04644 4.940544 35.160631
466 1 3.255416 4.242541 35.160631
467 1 4.940544 2.04644 35.160631
468 1 5.301857 0.698003 35.160631
469 1 4.940544 -2.04644 35.160631
470 1 4.242541 -3.255416 35.160631
471 1 2.04644 -4.940544 35.160631
472 1 0.698003 -5.301857 35.160631
473 1 -2.04644 -4.940544 35.160631
474 1 -3.255416 -4.242541 35.160631
475 1 -4.940544 -2.04644 35.160631
476 1 -5.301857 -0.698003 35.160631
477 1 -4.940544 2.04644 35.160631
478 1 -4.242541 3.255416 35.160631
479 1 -2.04644 4.940544 35.160631
480 1 -0.698003 5.301857 35.160631
481 1 3.781329 3.781329 36.373067
482 1 4.631163 2.673803 36.373067
483 1 5.347606 0.0 36.373067
484 1 5.165391 -1.384062 36.373067
485 1 3.781329 -3.781329 36.373067
486 1 2.673803 -4.631163 36.373067
487 1 0.0 -5.347606 36.373067
488 1 -1.384062 -5.165391 36.373067
489 1 -3.781329 -3.781329 36.373067
490 1 -4.631163 -2.673803 36.373067
491 1 -5.347606 0.0 36.373067
492 1 -5.165391 1.384062 36.373067
493 1 -3.781329 3.781329 36.373067
494 1 -2.673803 4.631163 36.373067
495 1 0.0 5.347606 36.373067
496 1 1.384062 5.165391 36.373067
497 1 4.940544 2.04644 37.585503
498 1 5.301857 0.698003 37.585503
499 1 4.940544 -2.04644 37.585503
500 1 4.242541 -3.255416 37.585503
501 1 2.04644 -4.940544 37.585503
502 1 0.698003 -5.301857 37.585503
503 1 -2.04644 -4.940544 37.585503
504 1 -3.255416 -4.242541 37.585503
505 1 -4.940544 -2.04644 37.585503
506 1 -5.301857 -0.698003 37.585503
507 1 -4.940544 2.04644 37.585503
508 1 -4.242541 3.255416 37.585503
509 1 -2.04644 4.940544 37.585503
510 1 -0.698003 5.301857 37.585503
511 1 2.04644 4.940544 37.585503
512 1 3.255416 4.242541 37.585503
513 1 5.347606 0.0 38.797938
514 1 5.165391 -1.384062 38.797938
515 1 3.781329 -3.781329 38.797938
516 1 2.673803 -4.631163 38.797938
517 1 0.0 -5.347606 38.797938
518 1 -1.384062 -5.165391 38.797938
519 1 -3.781329 -3.781329 38.797938
520 1 -4.631163 -2.673803 38.797938
521 1 -5.347606 0.0 38.797938
522 1 -5.165391 1.384062 38.797938
523 1 -3.781329 3.781329 38.797938
524 1 -2.673803 4.631163 38.797938
525 1 0.0 5.347606 38.797938
526 1 1.384062 5.165391 38.797938
527 1 3.781329 3.781329 38.797938
528 1 4.631163 2.673803 38.797938
529 1 4.940544 -2.04644 40.010374
530 1 4.242541 -3.255416 40.010374
531 1 2.04644 -4.940544 40.010374
532 1 0.698003 -5.301857 40.010374
533 1 -2.04644 -4.940544 40.010374
534 1 -3.255416 -4.242541 40.010374
535 1 -4.940544 -2.04644 40.010374
536 1 -5.301857 -0.698003 40.010374
537 1 -4.940544 2.04644 40.010374
538 1 -4.242541 3.255416 40.010374
539 1 -2.04644 4.940544 40.010374
540 1 -0.698003 5.301857 40.010374
541 1 2.04644 4.940544 40.010374
542 1 3.255416 4.242541 40.010374
543 1 4.940544 2.04644 40.010374
544 1 5.301857 0.698003 40.010374
545 2 2.168762 0.584815 2.595833
546 2 3.040062 0.170815 1.600233
547 2 1.280862 -0.315585 3.176333
548 2 3.014062 -1.149185 1.173833
549 2 3.105662 -1.439285 -0.184567
550 2 3.152562 1.204815 0.676633
551 2 3.245062 0.909115 -0.677467
552 2 3.221462 -0.408085 -1.112267
553 2 -0.437038 1.346915 3.135533
554 2 0.438562 2.256015 2.562633
555 2 -0.027338 0.057515 3.446333
556 2 1.746462 1.873215 2.291433
557 2 2.354162 2.261815 1.107433
558 2 -0.261038 3.021015 1.641033
559 2 0.339662 3.399615 0.445733
560 2 1.653862 3.022015 0.179133
561 2 -2.088038 -0.828285 2.603933
562 2 -2.508838 0.460615 2.293833
563 2 -0.842638 -1.030985 3.182233
564 2 -1.685138 1.547515 2.559633
565 2 -1.582038 2.580015 1.640333
566 2 -3.229138 0.400315 1.109133
567 2 -3.120438 1.435215 0.183033
568 2 -2.292438 2.523315 0.448333
569 2 -0.488538 -2.919085 1.744933
570 2 -1.740738 -2.718185 1.172133
571 2 -0.037038 -2.074185 2.753733
572 2 -2.546338 -1.670785 1.602633
573 2 -3.257938 -0.919885 0.678533
574 2 -1.652038 -3.011885 -0.181267
575 2 -2.351938 -2.249685 -1.108567
576 2 -3.162038 -1.200685 -0.679367
577 2 2.138662 -2.061085 1.744233
578 2 1.691762 -2.906685 0.737733
579 2 1.280762 -1.642385 2.751933
580 2 0.370062 -3.338485 0.738633
581 2 -0.341738 -3.396185 -0.450967
582 2 2.291162 -2.530785 -0.455567
583 2 1.581262 -2.577585 -1.649567
584 2 0.258262 -3.011185 -1.644667
585 2 -2.180538 -0.584085 -2.589467
586 2 -1.745738 -1.875185 -2.299867
587 2 -0.436238 -2.252685 -2.576067
588 2 -1.279238 0.313115 -3.158667
589 2 -2.150338 2.048715 -1.729367
590 2 -3.046238 1.147715 -1.172667
591 2 -3.063338 -0.168685 -1.602267
592 2 -1.263838 1.634915 -2.718667
593 2 0.506162 2.930315 -1.733367
594 2 -0.376538 3.350315 -0.742867
595 2 -1.692038 2.912815 -0.740667
596 2 0.054362 2.067215 -2.727067
597 2 2.099862 0.828215 -2.596667
598 2 2.553962 1.686515 -1.602267
599 2 1.761162 2.739415 -1.173967
600 2 0.844262 1.014815 -3.170167
601 2 0.448362 -1.355285 -3.157667
602 2 1.700562 -1.554285 -2.582367
603 2 2.520662 -0.468085 -2.308667
604 2 0.024062 -0.070285 -3.450067
605 2 2.168762 0.584815 12.892233
606 2 3.040062 0.170815 11.896633
607 2 1.280862 -0.315585 13.472733
608 2 3.014062 -1.149185 11.470233
609 2 3.105662 -1.439285 10.111833
610 2 3.152562 1.204815 10.973033
611 2 3.245062 0.909115 9.618933
612 2 3.221462 -0.408085 9.184133
613 2 -0.437038 1.346915 13.431933
614 2 0.438562 2.256015 12.859033
615 2 -0.027338 0.057515 13.742733
616 2 1.746462 1.873215 12.587833
617 2 2.354162 2.261815 11.403833
618 2 -0.261038 3.021015 11.937433
619 2 0.339662 3.399615 10.742133
620 2 1.653862 3.022015 10.475533
621 2 -2.088038 -0.828285 12.900333
622 2 -2.508838 0.460615 12.590233
623 2 -0.842638 -1.030985 13.478633
624 2 -1.685138 1.547515 12.856033
625 2 -1.582038 2.580015 11.936733
626 2 -3.229138 0.400315 11.405533
627 2 -3.120438 1.435215 10.479433
628 2 -2.292438 2.523315 10.744733
629 2 -0.488538 -2.919085 12.041333
630 2 -1.740738 -2.718185 11.468533
631 2 -0.037038 -2.074185 13.050133
632 2 -2.546338 -1.670785 11.899033
633 2 -3.257938 -0.919885 10.974933
634 2 -1.652038 -3.011885 10.115133
635 2 -2.351938 -2.249685 9.187833
636 2 -3.162038 -1.200685 9.617033
637 2 2.138662 -2.061085 12.040633
638 2 1.691762 -2.906685 11.034133
639 2 1.280762 -1.642385 13.048333
640 2 0.370062 -3.338485 11.035033
641 2 -0.341738 -3.396185 9.845433
642 2 2.291162 -2.530785 9.840833
643 2 1.581262 -2.577585 8.646833
644 2 0.258262 -3.011185 8.651733
645 2 -2.180538 -0.584085 7.706933
646 2 -1.745738 -1.875185 7.996533
647 2 -0.436238 -2.252685 7.720333
648 2 -1.279238 0.313115 7.137733
649 2 -2.150338 2.048715 8.567033
650 2 -3.046238 1.147715 9.123733
651 2 -3.063338 -0.168685 8.694133
652 2 -1.263838 1.634915 7.577733
653 2 0.506162 2.930315 8.563033
654 2 -0.376538 3.350315 9.553533
655 2 -1.692038 2.912815 9.555733
656 2 0.054362 2.067215 7.569333
657 2 2.099862 0.828215 7.699733
658 2 2.553962 1.686515 8.694133
659 2 1.761162 2.739415 9.122433
660 2 0.844262 1.014815 7.126233
661 2 0.448362 -1.355285 7.138733
662 2 1.700562 -1.554285 7.714033
663 2 2.520662 -0.468085 7.987733
664 2 0.024062 -0.070285 6.846333
665 2 2.168762 0.584815 23.188633
666 2 3.040062 0.170815 22.193033
667 2 1.280862 -0.315585 23.769133
668 2 3.014062 -1.149185 21.766633
669 2 3.105662 -1.439285 20.408233
670 2 3.152562 1.204815 21.269433
671 2 3.245062 0.909115 19.915333
672 2 3.221462 -0.408085 19.480533
673 2 -0.437038 1.346915 23.728333
674 2 0.438562 2.256015 23.155433
675 2 -0.027338 0.057515 24.039133
676 2 1.746462 1.873215 22.884233
677 2 2.354162 2.261815 21.700233
678 2 -0.261038 3.021015 22.233833
679 2 0.339662 3.399615 21.038533
680 2 1.653862 3.022015 20.771933
681 2 -2.088038 -0.828285 23.196733
682 2 -2.508838 0.460615 22.886633
683 2 -0.842638 -1.030985 23.775033
684 2 -1.685138 1.547515 23.152433
685 2 -1.582038 2.580015 22.233133
686 2 -3.229138 0.400315 21.701933
687 2 -3.120438 1.435215 20.775833
688 2 -2.292438 2.523315 21.041133
689 2 -0.488538 -2.919085 22.337733
690 2 -1.740738 -2.718185 21.764933
691 2 -0.037038 -2.074185 23.346533
692 2 -2.546338 -1.670785 22.195433
693 2 -3.257938 -0.919885 21.271333
694 2 -1.652038 -3.011885 20.411533
695 2 -2.351938 -2.249685 19.484233
696 2 -3.162038 -1.200685 19.913433
697 2 2.138662 -2.061085 22.337033
698 2 1.691762 -2.906685 21.330533
699 2 1.280762 -1.642385 23.344733
700 2 0.370062 -3.338485 21.331433
701 2 -0.341738 -3.396185 20.141833
702 2 2.291162 -2.530785 20.137233
703 2 1.581262 -2.577585 18.943233
704 2 0.258262 -3.011185 18.948133
705 2 -2.180538 -0.584085 18.003333
706 2 -1.745738 -1.875185 18.292933
707 2 -0.436238 -2.252685 18.016733
708 2 -1.279238 0.313115 17.434133
709 2 -2.150338 2.048715 18.863433
710 2 -3.046238 1.147715 19.420133
711 2 -3.063338 -0.168685 18.990533
712 2 -1.263838 1.634915 17.874133
713 2 0.506162 2.930315 18.859433
714 2 -0.376538 3.350315 19.849933
715 2 -1.692038 2.912815 19.852133
716 2 0.054362 2.067215 17.865733
717 2 2.099862 0.828215 17.996133
718 2 2.553962 1.686515 18.990533
719 2 1.761162 2.739415 19.418833
720 2 0.844262 1.014815 17.422633
721 2 0.448362 -1.355285 17.435133
722 2 1.700562 -1.554285 18.010433
723 2 2.520662 -0.468085 18.284133
724 2 0.024062 -0.070285 17.142733
725 2 2.168762 0.584815 33.485033
726 2 3.040062 0.170815 32.489433
727 2 1.280862 -0.315585 34.065533
728 2 3.014062 -1.149185 32.063033
729 2 3.105662 -1.439285 30.704633
730 2 3.152562 1.204815 31.565833
731 2 3.245062 0.909115 30.211733
732 2 3.221462 -0.408085 29.776933
733 2 -0.437038 1.346915 34.024733
734 2 0.438562 2.256015 33.451833
735 2 -0.027338 0.057515 34.335533
736 2 1.746462 1.873215 33.180633
737 2 2.354162 2.261815 31.996633
738 2 -0.261038 3.021015 32.530233
739 2 0.339662 3.399615 31.334933
740 2 1.653862 3.022015 31.068333
741 2 -2.088038 -0.828285 33.493133
742 2 -2.508838 0.460615 33.183033
743 2 -0.842638 -1.030985 34.071433
744 2 -1.685138 1.547515 33.448833
745 2 -1.582038 2.580015 32.529533
746 2 -3.229138 0.400315 31.998333
747 2 -3.120438 1.435215 31.072233
748 2 -2.292438 2.523315 31.337533
749 2 -0.488538 -2.919085 32.634133
750 2 -1.740738 -2.718185 32.061333
751 2 -0.037038 -2.074185 33.642933
752 2 -2.546338 -1.670785 32.491833
753 2 -3.257938 -0.919885 31.567733
754 2 -1.652038 -3.011885 30.707933
755 2 -2.351938 -2.249685 29.780633
756 2 -3.162038 -1.200685 30.209833
757 2 2.138662 -2.061085 32.633433
758 2 1.691762 -2.906685 31.626933
759 2 1.280762 -1.642385 33.641133
760 2 0.370062 -3.338485 31.627833
761 2 -0.341738 -3.396185 30.438233
762 2 2.291162 -2.530785 30.433633
763 2 1.581262 -2.577585 29.239633
764 2 0.258262 -3.011185 29.244533
765 2 -2.180538 -0.584085 28.299733
766 2 -1.745738 -1.875185 28.589333
767 2 -0.436238 -2.252685 28.313133
768 2 -1.279238 0.313115 27.730533
769 2 -2.150338 2.048715 29.159833
770 2 -3.046238 1.147715 29.716533
771 2 -3.063338 -0.168685 29.286933
772 2 -1.263838 1.634915 28.170533
773 2 0.506162 2.930315 29.155833
774 2 -0.376538 3.350315 30.146333
775 2 -1.692038 2.912815 30.148533
776 2 0.054362 2.067215 28.162133
777 2 2.099862 0.828215 28.292533
778 2 2.553962 1.686515 29.286933
779 2 1.761162 2.739415 29.715233
780 2 0.844262 1.014815 27.719033
781 2 0.448362 -1.355285 27.731533
782 2 1.700562 -1.554285 28.306833
783 2 2.520662 -0.468085 28.580533
784 2 0.024062 -0.070285 27.439133
