LAMMPS (2 Aug 2023 - Update 3)
OMP_NUM_THREADS environment is not set. Defaulting to 1 thread. (src/comm.cpp:98)
  using 1 OpenMP thread(s) per MPI task
Reading data file ...
  orthogonal box = (-100 -100 -2.3312511) to (100 100 38.891558)
  4 by 4 by 1 MPI processor grid
  reading atoms ...
  784 atoms
  read_data CPU = 0.004 seconds
Replication is creating a 1x1x19 = 19 times larger system...
  orthogonal box = (-100 -100 -2.3312511) to (100 100 780.90212)
  2 by 2 by 4 MPI processor grid
  14896 atoms
  replicate CPU = 0.001 seconds
System init for write_data ...
WARNING: Communication cutoff is 0.0. No ghost atoms will be generated. Atoms may get lost. (src/comm_brick.cpp:210)
Reading airebo potential file CH.airebo with DATE: 2011-10-25
Reading airebo potential file CH.airebo with DATE: 2011-10-25
Neighbor list info ...
  update: every = 1 steps, delay = 0 steps, check = yes
  max neighbors/atom: 2000, page size: 100000
  master list distance cutoff = 13.2
  ghost atom cutoff = 13.2
  binsize = 6.6, bins = 31 31 119
  5 neighbor lists, perpetual/occasional/extra = 5 0 0
  (1) pair airebo, perpetual, skip from (4)
      attributes: full, newton on, ghost
      pair build: skip/ghost
      stencil: none
      bin: none
  (2) pair airebo, perpetual, skip from (4)
      attributes: full, newton on, ghost
      pair build: skip/ghost
      stencil: none
      bin: none
  (3) pair lj/cut, perpetual, skip from (5)
      attributes: half, newton on, cut 13
      pair build: skip
      stencil: none
      bin: none
  (4) neighbor class addition, perpetual
      attributes: full, newton on, ghost
      pair build: full/bin/ghost
      stencil: full/ghost/bin/3d
      bin: standard
  (5) neighbor class addition, perpetual
      attributes: half, newton on, cut 13
      pair build: half/bin/atomonly/newton
      stencil: half/bin/3d
      bin: standard
Setting up sd style minimization ...
  Unit style    : metal
  Current step  : 0
Per MPI rank memory allocation (min/avg/max) = 11.91 | 12.05 | 12.29 Mbytes
   Step          Temp          E_pair         E_mol          TotEng         Press     
         0   0             -79107.391      0             -79107.391      6493.3023    
        22   0             -105226.85      0             -105226.85      191.11314    
Loop time of 0.719839 on 16 procs for 22 steps with 14896 atoms

97.6% CPU use with 16 MPI tasks x 1 OpenMP threads

Minimization stats:
  Stopping criterion = energy tolerance
  Energy initial, next-to-last, final = 
     -79107.3910505653  -105218.715566114  -105226.849960392
  Force two-norm initial, final = 4401.2977 38.304743
  Force max component initial, final = 135.10344 1.8602613
  Final line search alpha, max atom move = 0.048367349 0.089975905
  Iterations, force evaluations = 22 39

MPI task timing breakdown:
Section |  min time  |  avg time  |  max time  |%varavg| %total
---------------------------------------------------------------
Pair    | 0.63349    | 0.66975    | 0.70849    |   3.1 | 93.04
Neigh   | 0          | 0          | 0          |   0.0 |  0.00
Comm    | 0.0076647  | 0.04503    | 0.08155    |  11.8 |  6.26
Output  | 0          | 0          | 0          |   0.0 |  0.00
Modify  | 0          | 0          | 0          |   0.0 |  0.00
Other   |            | 0.005063   |            |       |  0.70

Nlocal:            931 ave        1014 max         848 min
Histogram: 4 0 0 0 4 4 0 0 0 4
Nghost:           3291 ave        3374 max        3208 min
Histogram: 4 0 0 0 4 4 0 0 0 4
Neighs:              0 ave           0 max           0 min
Histogram: 16 0 0 0 0 0 0 0 0 0

Total # of neighbors = 0
Ave neighs/atom = 0
Neighbor list builds = 0
Dangerous builds = 0
Setting up Verlet run ...
  Unit style    : metal
  Current step  : 22
  Time step     : 0.001
Per MPI rank memory allocation (min/avg/max) = 12.53 | 12.82 | 13.3 Mbytes
   Step          Temp          E_pair         E_mol          TotEng         Press          Volume    
        22   300           -105226.85      0             -104649.25      210.80535      31329335     
Loop time of 3.75377e-05 on 16 procs for 0 steps with 14896 atoms

90.1% CPU use with 16 MPI tasks x 1 OpenMP threads

MPI task timing breakdown:
Section |  min time  |  avg time  |  max time  |%varavg| %total
---------------------------------------------------------------
Pair    | 0          | 0          | 0          |   0.0 |  0.00
Neigh   | 0          | 0          | 0          |   0.0 |  0.00
Comm    | 0          | 0          | 0          |   0.0 |  0.00
Output  | 0          | 0          | 0          |   0.0 |  0.00
Modify  | 0          | 0          | 0          |   0.0 |  0.00
Other   |            | 3.754e-05  |            |       |100.00

Nlocal:            931 ave         939 max         924 min
Histogram: 4 0 3 1 0 0 3 1 2 2
Nghost:           3291 ave        3298 max        3283 min
Histogram: 2 2 1 1 2 0 1 3 0 4
Neighs:              0 ave           0 max           0 min
Histogram: 16 0 0 0 0 0 0 0 0 0

Total # of neighbors = 0
Ave neighs/atom = 0
Neighbor list builds = 0
Dangerous builds = 0
WARNING: New thermo_style command, previous thermo_modify settings will be lost (src/output.cpp:903)
WARNING: Dump 2 includes no atom IDs and is not sorted by ID. This may complicate post-processing tasks or visualization (src/dump.cpp:221)
Setting up Verlet run ...
  Unit style    : metal
  Current step  : 0
  Time step     : 0.001
Per MPI rank memory allocation (min/avg/max) = 14.03 | 14.32 | 14.8 Mbytes
   Step         PotEng         KinEng         TotEng           Lx             Ly             Lz      
         0  -105226.85      577.59896     -104649.25      200            200            783.23338    
       100  -105013.56      406.40518     -104607.16      200.02002      200.02265      783.62499    
       200  -104977.28      428.2817      -104549         200.02725      200.02558      784.01661    
       300  -104984.43      498.75573     -104485.67      200.00909      199.99634      784.40823    
       400  -104954.74      531.58264     -104423.16      200.02178      200.01226      784.79984    
       500  -104889.59      527.02715     -104362.57      200.0309       200.0238       785.19146    
       600  -104770.71      469.15676     -104301.56      200.0159       199.99746      785.58308    
       700  -104794.09      555.80095     -104238.29      200.02631      200.00971      785.97469    
       800  -104728.45      545.67492     -104182.78      200.02927      200.01796      786.36631    
       900  -104719.85      576.73372     -104143.12      200.01337      199.98987      786.75793    
      1000  -104805.58      655.05983     -104150.52      200.02924      200.00425      787.14954    
      1100  -104807.4       600.64224     -104206.76      200.02793      200.00997      787.54116    
      1200  -104813.09      563.23438     -104249.85      200.00839      199.98118      787.93278    
      1300  -104837.65      574.77512     -104262.88      200.02604      199.99539      788.32439    
      1400  -104759.64      534.29095     -104225.35      200.02844      200.00776      788.71601    
      1500  -104719.39      546.03606     -104173.35      200.00539      199.97655      789.10763    
      1600  -104764.26      633.18023     -104131.08      200.02441      199.98635      789.49924    
      1700  -104717.94      589.76469     -104128.18      200.03047      199.9991       789.89086    
      1800  -104751.21      584.48091     -104166.72      200.00545      199.97179      790.28248    
      1900  -104796.31      594.75245     -104201.55      200.02003      199.97754      790.67409    
      2000  -104757.41      543.37458     -104214.04      200.0261       199.98739      791.06571    
      2100  -104734.87      548.28752     -104186.58      200.00388      199.96833      791.45733    
      2200  -104748.49      606.25693     -104142.23      200.01692      199.97259      791.84894    
      2300  -104694.19      578.05901     -104116.13      200.0221       199.97653      792.24056    
      2400  -104720.21      597.50275     -104122.71      199.99972      199.9586       792.63218    
      2500  -104745.81      592.9833      -104152.82      200.01426      199.96744      793.02379    
      2600  -104719.64      548.79523     -104170.84      200.01987      199.96849      793.41541    
      2700  -104707.56      553.61565     -104153.94      199.99612      199.94996      793.80703    
      2800  -104710.18      594.67003     -104115.51      200.0081       199.95915      794.19864    
      2900  -104672.04      580.73161     -104091.3       200.01769      199.96106      794.59026    
      3000  -104683.6       587.8014      -104095.8       199.99423      199.94279      794.98188    
      3100  -104711.99      592.41349     -104119.58      200.00199      199.95126      795.37349    
      3200  -104686.93      553.33409     -104133.6       200.01049      199.95118      795.76511    
      3300  -104678.41      559.80056     -104118.61      199.99171      199.93516      796.15673    
      3400  -104682.12      596.22449     -104085.9       199.99745      199.94413      796.54834    
      3500  -104648.54      583.92616     -104064.61      200.00294      199.94169      796.93996    
      3600  -104657.36      588.07202     -104069.29      199.98727      199.92508      797.33158    
      3700  -104661.86      575.14788     -104086.71      199.99383      199.93656      797.72319    
      3800  -104642.27      555.93236     -104086.34      199.99623      199.93423      798.11481    
      3900  -104633.5       574.7543      -104058.75      199.98145      199.916        798.50643    
      4000  -104626.94      596.73441     -104030.21      199.98839      199.92736      798.89804    
      4100  -104613.25      588.20105     -104025.05      199.98969      199.92652      799.28966    
      4200  -104616.96      575.24314     -104041.72      199.97632      199.90847      799.68128    
      4300  -104621.05      567.92813     -104053.12      199.98208      199.91756      800.07289    
      4400  -104607.87      566.03459     -104041.84      199.98088      199.91684      800.46451    
      4500  -104589.63      577.66006     -104011.97      199.97044      199.90064      800.85613    
      4600  -104577.84      589.93361     -103987.9       199.97631      199.90787      801.24774    
      4700  -104568.43      584.55549     -103983.88      199.97197      199.90576      801.63936    
      4800  -104568.8       574.14757     -103994.65      199.96249      199.89152      802.03098    
      4900  -104571.26      572.23789     -103999.02      199.9695       199.8985       802.42259    
      5000  -104550.66      568.57614     -103982.08      199.96377      199.89523      802.81421    
      5100  -104540.66      586.4378      -103954.22      199.95397      199.88093      803.20583    
      5200  -104527.45      587.24358     -103940.2       199.96104      199.8871       803.59744    
      5300  -104526.58      582.32473     -103944.26      199.95435      199.88403      803.98906    
      5400  -104521.58      572.30234     -103949.28      199.94531      199.87128      804.38068    
      5500  -104512.58      570.15385     -103942.42      199.95191      199.87545      804.77229    
      5600  -104504.13      581.58216     -103922.54      199.9446       199.87113      805.16391    
      5700  -104488.1       582.11545     -103905.98      199.93594      199.8601       805.55553    
      5800  -104472.21      571.94445     -103900.26      199.94275      199.8635       805.94714    
      5900  -104471.68      576.00617     -103895.67      199.9339       199.858        806.33876    
      6000  -104459.24      573.09607     -103886.14      199.92539      199.84874      806.73038    
      6100  -104448.8       576.95242     -103871.85      199.93283      199.85123      807.12199    
      6200  -104446.55      587.30414     -103859.25      199.92369      199.8442       807.51361    
      6300  -104438.43      581.71665     -103856.71      199.91483      199.83653      807.90523    
      6400  -104424.69      567.38568     -103857.31      199.92079      199.83887      808.29684    
      6500  -104422.64      573.43484     -103849.2       199.91218      199.83031      808.68846    
      6600  -104405.91      577.12126     -103828.79      199.90436      199.82465      809.08008    
      6700  -104383.47      578.15003     -103805.32      199.90871      199.82632      809.47169    
      6800  -104381.59      590.64408     -103790.94      199.89954      199.8154       809.86331    
      6900  -104372.75      580.65078     -103792.1       199.89351      199.81117      810.25493    
      7000  -104364.03      567.24066     -103796.79      199.89604      199.81275      810.64654    
      7100  -104364.45      575.6857      -103788.77      199.88655      199.80133      811.03816    
      7200  -104345.22      579.07795     -103766.14      199.88206      199.79718      811.42978    
      7300  -104323.97      580.96279     -103743.01      199.88278      199.79766      811.82139    
      7400  -104317.71      586.76568     -103730.95      199.87338      199.78662      812.21301    
      7500  -104308.22      577.75859     -103730.46      199.86959      199.78285      812.60463    
      7600  -104297.41      568.15778     -103729.25      199.8687       199.78177      812.99624    
      7700  -104292.81      575.59857     -103717.21      199.85943      199.77104      813.38786    
      7800  -104275.38      579.49451     -103695.88      199.85637      199.76729      813.77948    
      7900  -104258.5       580.9999      -103677.5       199.85363      199.76485      814.17109    
      8000  -104250.42      583.6099      -103666.81      199.84379      199.75454      814.56271    
      8100  -104239.69      575.52499     -103664.16      199.84155      199.75049      814.95433    
      8200  -104236.02      575.46307     -103660.56      199.83791      199.74653      815.34594    
      8300  -104227.62      579.58662     -103648.04      199.82811      199.73658      815.73756    
      8400  -104205.47      577.82921     -103627.64      199.8259       199.73279      816.12918    
      8500  -104188.64      580.8963      -103607.74      199.82105      199.72779      816.52079    
      8600  -104179.46      585.45355     -103594.01      199.81176      199.71798      816.91241    
      8700  -104172.22      583.28379     -103588.94      199.80939      199.71407      817.30403    
      8800  -104163.66      577.7273      -103585.93      199.80388      199.70756      817.69564    
      8900  -104151.7       573.65638     -103578.04      199.79477      199.6982       818.08726    
      9000  -104132.98      572.82058     -103560.16      199.79138      199.69491      818.47888    
      9100  -104119.67      582.20766     -103537.46      199.78538      199.68751      818.87049    
      9200  -104105.88      585.81935     -103520.06      199.77714      199.67789      819.26211    
      9300  -104092.23      581.74888     -103510.48      199.77352      199.67398      819.65373    
      9400  -104082.97      577.51249     -103505.46      199.76578      199.66647      820.04534    
      9500  -104072.68      573.99874     -103498.68      199.75728      199.65764      820.43696    
      9600  -104056.01      568.01706     -103487.99      199.75375      199.65262      820.82858    
      9700  -104043.91      574.76628     -103469.15      199.74632      199.64364      821.22019    
      9800  -104023.85      575.06134     -103448.79      199.73752      199.63559      821.61181    
      9900  -104011.39      578.88944     -103432.5       199.73295      199.6305       822.00343    
     10000  -103998         577.09938     -103420.9       199.72471      199.62042      822.39504    
     10100  -103993.17      575.14938     -103418.02      199.71651      199.61186      822.78666    
     10200  -103973.53      567.38383     -103406.15      199.71112      199.60617      823.17828    
     10300  -103961.98      575.36324     -103386.61      199.70196      199.59589      823.56989    
     10400  -103952.95      583.78814     -103369.17      199.69358      199.58724      823.96151    
     10500  -103931.64      573.78551     -103357.85      199.68774      199.58036      824.35313    
     10600  -103927.7       577.53685     -103350.16      199.67844      199.56944      824.74474    
     10700  -103909.26      569.02486     -103340.23      199.67022      199.56126      825.13636    
     10800  -103887.54      573.12576     -103314.41      199.66296      199.55427      825.52798    
     10900  -103879.61      584.24985     -103295.36      199.65326      199.54225      825.91959    
     11000  -103862.92      578.55501     -103284.36      199.64544      199.53343      826.31121    
     11100  -103852.81      574.87974     -103277.93      199.63708      199.52556      826.70283    
     11200  -103840.29      574.12593     -103266.16      199.62695      199.51406      827.09444    
     11300  -103824.72      577.80841     -103246.91      199.61921      199.5051       827.48606    
     11400  -103804.52      579.34926     -103225.17      199.61078      199.49617      827.87768    
     11500  -103797.24      584.23146     -103213.01      199.59979      199.48443      828.26929    
     11600  -103779.47      577.96753     -103201.5       199.59221      199.47608      828.66091    
     11700  -103761.2       574.36751     -103186.83      199.58325      199.46634      829.05253    
     11800  -103751.81      584.74555     -103167.06      199.57167      199.45481      829.44414    
     11900  -103727.5       582.45617     -103145.05      199.56378      199.44674      829.83576    
     12000  -103711.85      576.65912     -103135.19      199.55402      199.43549      830.22738    
     12100  -103705.6       577.73701     -103127.86      199.54261      199.42436      830.61899    
     12200  -103689.96      576.27378     -103113.68      199.5339       199.41698      831.01061    
     12300  -103680.39      582.73332     -103097.66      199.52335      199.40397      831.40223    
     12400  -103661.41      577.55454     -103083.86      199.51307      199.39205      831.79384    
     12500  -103643.36      568.86742     -103074.5       199.50311      199.38485      832.18546    
     12600  -103629.22      570.7634      -103058.46      199.49077      199.37285      832.57708    
     12700  -103613.06      580.65808     -103032.4       199.48163      199.36016      832.96869    
     12800  -103592.16      577.78951     -103014.37      199.47121      199.35084      833.36031    
     12900  -103582.17      581.10517     -103001.07      199.45847      199.33879      833.75193    
     13000  -103569.61      575.95639     -102993.65      199.44819      199.32702      834.14354    
     13100  -103555.09      574.26395     -102980.82      199.43697      199.31671      834.53516    
     13200  -103537.27      575.98393     -102961.28      199.42447      199.30449      834.92678    
     13300  -103522.01      581.09362     -102940.92      199.41418      199.29161      835.31839    
     13400  -103506.31      582.07806     -102924.23      199.40246      199.28086      835.71001    
     13500  -103487.16      577.13222     -102910.03      199.3889       199.26932      836.10163    
     13600  -103478.76      581.81273     -102896.95      199.37821      199.25591      836.49324    
     13700  -103453.02      568.26714     -102884.75      199.36685      199.2444       836.88486    
     13800  -103447.15      579.08673     -102868.06      199.35228      199.23222      837.27648    
     13900  -103422.75      578.7518      -102844         199.34083      199.21878      837.66809    
     14000  -103398.87      575.26075     -102823.61      199.32913      199.20702      838.05971    
     14100  -103384.13      576.2845      -102807.85      199.31379      199.19472      838.45133    
     14200  -103369.76      572.20696     -102797.56      199.30236      199.18105      838.84294    
     14300  -103356.75      567.21798     -102789.53      199.29052      199.16749      839.23456    
     14400  -103346.41      575.82569     -102770.58      199.27372      199.15421      839.62618    
     14500  -103323.88      576.04232     -102747.83      199.26172      199.14223      840.01779    
     14600  -103302.97      575.39212     -102727.58      199.24963      199.12746      840.40941    
     14700  -103287.86      579.72443     -102708.14      199.23364      199.11314      840.80103    
     14800  -103265.64      577.55731     -102688.09      199.22101      199.10124      841.19264    
     14900  -103250.9       582.00406     -102668.89      199.2068       199.08549      841.58426    
     15000  -103237.17      578.06744     -102659.11      199.19113      199.07061      841.97588    
     15100  -103218.49      569.72646     -102648.77      199.17889      199.05776      842.3675     
     15200  -103204.62      576.32268     -102628.3       199.16332      199.04083      842.75911    
     15300  -103184.22      580.33839     -102603.88      199.14704      199.02611      843.15073    
     15400  -103167.31      581.96142     -102585.35      199.13375      199.01254      843.54235    
     15500  -103151.89      581.6398      -102570.25      199.11716      198.99479      843.93396    
     15600  -103133.49      578.73656     -102554.75      199.10136      198.98039      844.32558    
     15700  -103113.06      575.14506     -102537.92      199.08701      198.96553      844.7172     
     15800  -103095.16      575.6123      -102519.55      199.07034      198.94702      845.10881    
     15900  -103084.95      585.94397     -102499         199.0546       198.93272      845.50043    
     16000  -103055.36      582.94785     -102472.41      199.03823      198.91717      845.89205    
     16100  -103039.95      584.17601     -102455.78      199.022        198.89816      846.28366    
     16200  -103025.99      579.13009     -102446.86      199.00729      198.8833       846.67528    
     16300  -103005.05      574.60388     -102430.45      198.98929      198.86696      847.0669     
     16400  -102991.29      580.96643     -102410.32      198.97162      198.84882      847.45851    
     16500  -102975.01      580.31448     -102394.69      198.95636      198.83285      847.85013    
     16600  -102954.86      567.2666      -102387.59      198.93843      198.81507      848.24175    
     16700  -102937.62      571.31393     -102366.3       198.92112      198.79736      848.63336    
     16800  -102920.62      579.92675     -102340.69      198.90479      198.78062      849.02498    
     16900  -102891.69      574.52099     -102317.17      198.88669      198.76207      849.4166     
     17000  -102882.16      585.51012     -102296.65      198.86872      198.74447      849.80821    
     17100  -102855.31      573.85578     -102281.45      198.85105      198.72698      850.19983    
     17200  -102842.54      572.86714     -102269.67      198.83325      198.70706      850.59145    
     17300  -102829.14      574.68995     -102254.45      198.81533      198.68852      850.98306    
     17400  -102805.39      575.38325     -102230         198.79611      198.67091      851.37468    
     17500  -102786.71      583.61733     -102203.09      198.77756      198.65139      851.7663     
     17600  -102760.19      576.50814     -102183.68      198.75971      198.63172      852.15791    
     17700  -102741.68      577.66749     -102164.01      198.74072      198.6135       852.54953    
     17800  -102720.5       584.06022     -102136.44      198.72121      198.59313      852.94115    
     17900  -102705.59      588.29189     -102117.3       198.70264      198.57338      853.33276    
     18000  -102687.7       579.88077     -102107.82      198.68348      198.55457      853.72438    
     18100  -102669.19      576.48513     -102092.7       198.66334      198.5341       854.116      
     18200  -102649.42      574.53037     -102074.89      198.64436      198.51386      854.50761    
     18300  -102625.1       573.26453     -102051.83      198.62433      198.49483      854.89923    
     18400  -102608.13      582.51855     -102025.61      198.60408      198.47364      855.29085    
     18500  -102586.27      577.58178     -102008.69      198.58617      198.45243      855.68246    
     18600  -102571.61      573.52394     -101998.09      198.56506      198.4323       856.07408    
     18700  -102556.74      578.71972     -101978.02      198.54298      198.41311      856.4657     
     18800  -102532.95      579.92456     -101953.02      198.52466      198.3913       856.85731    
     18900  -102510.35      579.65269     -101930.69      198.50427      198.36924      857.24893    
     19000  -102492.3       577.66674     -101914.63      198.48239      198.34971      857.64055    
     19100  -102474.82      569.97806     -101904.84      198.46176      198.32855      858.03216    
     19200  -102457.69      575.8509      -101881.84      198.44106      198.30581      858.42378    
     19300  -102433.19      577.31343     -101855.88      198.41978      198.28492      858.8154     
     19400  -102411.64      577.43093     -101834.21      198.39796      198.26291      859.20701    
     19500  -102391.88      575.04269     -101816.83      198.37716      198.24059      859.59863    
     19600  -102370.82      569.12928     -101801.69      198.35522      198.21899      859.99025    
     19700  -102356.35      575.2915      -101781.06      198.33356      198.1963       860.38186    
     19800  -102327.4       576.06883     -101751.33      198.31285      198.1734       860.77348    
     19900  -102306.87      577.30302     -101729.56      198.28957      198.15139      861.1651     
     20000  -102289.43      575.3098      -101714.12      198.26779      198.12862      861.55671    
     20100  -102273.92      573.09082     -101700.83      198.24681      198.10467      861.94833    
     20200  -102252.61      572.78167     -101679.83      198.22351      198.08281      862.33995    
     20300  -102231.79      576.19724     -101655.6       198.20146      198.06077      862.73156    
     20400  -102210.85      578.39879     -101632.46      198.17951      198.0362       863.12318    
     20500  -102191.37      581.51894     -101609.85      198.15687      198.01393      863.5148     
     20600  -102164.7       576.21183     -101588.49      198.13424      197.99201      863.90641    
     20700  -102150.03      579.99654     -101570.03      198.1123       197.9673       864.29803    
     20800  -102131.48      577.46709     -101554.01      198.09036      197.9448       864.68965    
     20900  -102104.41      572.65271     -101531.76      198.06707      197.92234      865.08126    
     21000  -102079.24      577.74565     -101501.5       198.0444       197.89875      865.47288    
     21100  -102060.71      582.26507     -101478.44      198.02185      197.87661      865.8645     
     21200  -102036.15      575.74704     -101460.4       197.99808      197.8536       866.25611    
     21300  -102021.62      575.21775     -101446.4       197.97648      197.82996      866.64773    
     21400  -102004.81      574.95974     -101429.85      197.95438      197.80614      867.03935    
     21500  -101980.95      573.87764     -101407.07      197.93109      197.78344      867.43096    
     21600  -101952.72      571.93122     -101380.79      197.90853      197.76075      867.82258    
     21700  -101932.08      578.6122      -101353.47      197.88499      197.7379       868.2142     
     21800  -101916.62      584.44881     -101332.17      197.86189      197.71545      868.60581    
     21900  -101895.33      578.34909     -101316.98      197.8402       197.69175      868.99743    
     22000  -101876.61      573.38901     -101303.22      197.81755      197.66795      869.38905    
     22100  -101855.1       577.37352     -101277.73      197.79445      197.64572      869.78066    
     22200  -101822.74      577.18907     -101245.55      197.77155      197.62312      870.17228    
     22300  -101804.26      578.55567     -101225.7       197.74855      197.60036      870.5639     
     22400  -101788.29      578.28696     -101210         197.72548      197.57807      870.95551    
     22500  -101760.09      568.36739     -101191.73      197.70333      197.55509      871.34713    
     22600  -101743.25      576.91047     -101166.34      197.68097      197.53166      871.73875    
     22700  -101717.47      581.19249     -101136.28      197.65825      197.50972      872.13036    
     22800  -101694.54      580.4654      -101114.08      197.6358       197.48727      872.52198    
     22900  -101675.08      579.6606      -101095.42      197.61329      197.4642       872.9136     
     23000  -101657.62      579.98975     -101077.63      197.5902       197.44349      873.30521    
     23100  -101632.13      574.46001     -101057.67      197.56719      197.42129      873.69683    
     23200  -101609.88      576.69225     -101033.18      197.54623      197.39793      874.08845    
     23300  -101582.37      585.52887     -100996.84      197.5245       197.37611      874.48006    
     23400  -101560.6       582.64876     -100977.95      197.50201      197.35302      874.87168    
     23500  -101533.05      569.16547     -100963.88      197.47989      197.33102      875.2633     
     23600  -101523.33      576.63152     -100946.7       197.45667      197.31022      875.65491    
     23700  -101499         573.33778     -100925.66      197.434        197.2883       876.04653    
     23800  -101470.77      575.59493     -100895.17      197.41329      197.26539      876.43815    
     23900  -101440.26      573.4928      -100866.77      197.39169      197.243        876.82976    
     24000  -101428.68      582.48819     -100846.19      197.36936      197.22095      877.22138    
     24100  -101410.33      579.3458      -100830.98      197.34773      197.19883      877.613      
     24200  -101383.06      571.04809     -100812.01      197.32597      197.17742      878.00461    
     24300  -101364.06      575.82705     -100788.23      197.30365      197.15651      878.39623    
     24400  -101337.63      577.2026      -100760.43      197.2817       197.13505      878.78785    
     24500  -101315.85      580.67476     -100735.18      197.26108      197.11327      879.17946    
     24600  -101294.73      580.07419     -100714.66      197.23986      197.09132      879.57108    
     24700  -101279.01      580.40876     -100698.6       197.21822      197.07012      879.9627     
     24800  -101250.22      572.61002     -100677.61      197.19757      197.04966      880.35431    
     24900  -101230.33      578.57057     -100651.76      197.17613      197.02864      880.74593    
     25000  -101202.11      576.87845     -100625.23      197.15523      197.00817      881.13755    
     25100  -101174.04      575.4348      -100598.61      197.13505      196.98753      881.52916    
     25200  -101155.25      580.01844     -100575.23      197.11418      196.96603      881.92078    
     25300  -101135.68      574.93779     -100560.74      197.09395      196.9459       882.3124     
     25400  -101118.1       574.9584      -100543.14      197.07372      196.92523      882.70401    
     25500  -101085.1       570.68772     -100514.41      197.05332      196.90466      883.09563    
     25600  -101064.55      577.75089     -100486.8       197.03332      196.88473      883.48725    
     25700  -101040.9       579.27846     -100461.62      197.01381      196.8638       883.87886    
     25800  -101021.61      582.56779     -100439.04      196.99373      196.84414      884.27048    
     25900  -100991.17      573.68001     -100417.49      196.97314      196.82485      884.6621     
     26000  -100970.74      577.04819     -100393.69      196.95309      196.8053       885.05371    
     26100  -100947.67      581.65582     -100366.02      196.93402      196.78506      885.44533    
     26200  -100918.39      578.48794     -100339.9       196.91609      196.76432      885.83695    
     26300  -100893.09      575.26301     -100317.82      196.89726      196.74429      886.22856    
     26400  -100879.87      577.78777     -100302.08      196.87743      196.72558      886.62018    
     26500  -100849.03      566.99981     -100282.03      196.85773      196.70748      887.0118     
     26600  -100830.01      576.36702     -100253.64      196.83815      196.68908      887.40341    
     26700  -100800.86      579.89252     -100220.97      196.81956      196.66992      887.79503    
     26800  -100777.93      579.51231     -100198.42      196.80264      196.65041      888.18665    
     26900  -100754.26      575.76473     -100178.49      196.78491      196.63085      888.57826    
     27000  -100732.33      574.62746     -100157.71      196.76584      196.61323      888.96988    
     27100  -100713.56      577.30558     -100136.26      196.74769      196.59559      889.3615     
     27200  -100687.72      574.91459     -100112.8       196.72931      196.57742      889.75311    
     27300  -100662.71      576.36221     -100086.35      196.71069      196.56037      890.14473    
     27400  -100638.62      580.95587     -100057.67      196.69383      196.5413       890.53635    
     27500  -100613.56      583.55111     -100030.01      196.67663      196.52286      890.92796    
     27600  -100587.34      577.87491     -100009.46      196.6583       196.50605      891.31958    
     27700  -100573.94      579.04588     -99994.897      196.64115      196.48735      891.7112     
     27800  -100547.78      577.48354     -99970.293      196.62476      196.46931      892.10281    
     27900  -100521.55      580.36811     -99941.182      196.60661      196.45237      892.49443    
     28000  -100494.76      579.56762     -99915.195      196.58975      196.43417      892.88605    
     28100  -100470.81      579.05533     -99891.751      196.57317      196.41667      893.27766    
     28200  -100445.03      575.2668      -99869.759      196.55466      196.40004      893.66928    
     28300  -100426.53      575.69393     -99850.838      196.5379       196.38324      894.0609     
     28400  -100404.09      569.36475     -99834.723      196.52249      196.36447      894.45251    
     28500  -100374.42      568.89525     -99805.525      196.50547      196.34788      894.84413    
     28600  -100345.41      571.91423     -99773.495      196.4885       196.33192      895.23575    
     28700  -100329.6       582.74658     -99746.855      196.47337      196.3135       895.62736    
     28800  -100297.68      576.37018     -99721.311      196.45665      196.29774      896.01898    
     28900  -100270.53      574.30886     -99696.219      196.44         196.28152      896.4106     
     29000  -100253.29      577.56414     -99675.725      196.4256       196.26336      896.80221    
     29100  -100225.56      568.79015     -99656.768      196.40855      196.24864      897.19383    
     29200  -100210.22      579.49324     -99630.731      196.39092      196.23404      897.58545    
     29300  -100174.4       578.63912     -99595.763      196.37663      196.21727      897.97706    
     29400  -100146.4       575.966       -99570.434      196.361        196.20107      898.36868    
     29500  -100131.73      580.97563     -99550.749      196.34545      196.18567      898.7603     
     29600  -100103.15      572.64179     -99530.511      196.3318       196.16809      899.15191    
     29700  -100079.18      573.97302     -99505.204      196.31588      196.15286      899.54353    
     29800  -100051.8       583.4024      -99468.4        196.29849      196.14041      899.93515    
     29900  -100026.68      582.45388     -99444.229      196.28377      196.12441      900.32676    
     30000  -100004.15      578.83405     -99425.321      196.26914      196.10919      900.71838    
     30100  -99980.128      576.70119     -99403.427      196.25314      196.09487      901.11       
     30200  -99956.509      577.05526     -99379.454      196.24038      196.07745      901.50161    
     30300  -99929.82       572.92778     -99356.892      196.22657      196.06199      901.89323    
     30400  -99908.666      574.46651     -99334.2        196.20952      196.04884      902.28485    
     30500  -99878.584      571.16187     -99307.422      196.19597      196.0338       902.67646    
     30600  -99852.076      578.61423     -99273.462      196.18025      196.02         903.06808    
     30700  -99826.688      580.15499     -99246.533      196.1641       196.00712      903.4597     
     30800  -99803.345      576.69843     -99226.646      196.15158      195.99104      903.85131    
     30900  -99782.535      576.60138     -99205.934      196.13736      195.97662      904.24293    
     31000  -99755.447      574.88554     -99180.562      196.12254      195.96343      904.63455    
     31100  -99731.757      577.96681     -99153.791      196.10931      195.94776      905.02617    
     31200  -99701.077      574.63679     -99126.44       196.09432      195.93533      905.41778    
     31300  -99676.19       579.30505     -99096.885      196.0791       195.92223      905.8094     
     31400  -99651.848      584.81124     -99067.037      196.06686      195.90659      906.20102    
     31500  -99622.98       583.15086     -99039.83       196.05257      195.89345      906.59263    
     31600  -99599.915      578.19564     -99021.719      196.03733      195.87983      906.98425    
     31700  -99581.536      580.05445     -99001.482      196.02451      195.86526      907.37587    
     31800  -99549.231      574.34885     -98974.882      196.00936      195.85194      907.76748    
     31900  -99521.673      580.03417     -98941.639      195.99465      195.83868      908.1591     
     32000  -99493.859      582.05272     -98911.806      195.98235      195.82334      908.55072    
     32100  -99468.527      578.43393     -98890.093      195.96801      195.80925      908.94233    
     32200  -99444.568      577.79977     -98866.768      195.95351      195.79644      909.33395    
     32300  -99421.72       578.28304     -98843.437      195.9403       195.78104      909.72557    
     32400  -99398.746      576.97787     -98821.768      195.92597      195.76801      910.11718    
     32500  -99370.792      575.19881     -98795.593      195.9109       195.75515      910.5088     
     32600  -99342.866      582.88696     -98759.979      195.89893      195.73939      910.90042    
     32700  -99312.499      581.46584     -98731.033      195.88475      195.72625      911.29203    
     32800  -99293.251      581.11961     -98712.131      195.86885      195.71416      911.68365    
     32900  -99267.092      574.98021     -98692.112      195.85637      195.69938      912.07527    
     33000  -99240.888      574.47395     -98666.414      195.84232      195.68637      912.46688    
     33100  -99216.589      580.42273     -98636.166      195.82831      195.6728       912.8585     
     33200  -99184.494      581.29905     -98603.195      195.81679      195.65679      913.25012    
     33300  -99161.354      588.28347     -98573.07       195.80252      195.64397      913.64173    
     33400  -99133.347      578.26713     -98555.079      195.78737      195.63143      914.03335    
     33500  -99108.774      572.97567     -98535.799      195.77471      195.61648      914.42497    
     33600  -99092.768      581.93607     -98510.832      195.76005      195.60379      914.81658    
     33700  -99067.21       580.99902     -98486.211      195.74441      195.59131      915.2082     
     33800  -99037.709      577.3271      -98460.382      195.73256      195.57642      915.59982    
     33900  -99001.961      576.85883     -98425.103      195.71901      195.56259      915.99143    
     34000  -98979.191      585.23202     -98393.959      195.70504      195.54826      916.38305    
     34100  -98952.674      580.40294     -98372.271      195.69393      195.53227      916.77467    
     34200  -98927.1        573.9622      -98353.138      195.67884      195.51902      917.16628    
     34300  -98906.998      579.12796     -98327.87       195.66307      195.50733      917.5579     
     34400  -98869.438      570.64785     -98298.791      195.65017      195.49274      917.94952    
     34500  -98845.947      579.40502     -98266.542      195.6361       195.47918      918.34113    
     34600  -98816.641      585.2669      -98231.375      195.622        195.46595      918.73275    
     34700  -98787.765      580.0665      -98207.698      195.60989      195.45078      919.12437    
     34800  -98770.897      579.53317     -98191.363      195.59576      195.43653      919.51598    
     34900  -98740.759      573.16509     -98167.594      195.58161      195.42333      919.9076     
     35000  -98715.619      572.3146      -98143.305      195.56914      195.4087       920.29922    
     35100  -98691.977      574.45219     -98117.524      195.55471      195.39477      920.69083    
     35200  -98663.974      578.71135     -98085.263      195.54025      195.38261      921.08245    
     35300  -98632.446      580.8622      -98051.584      195.52702      195.36769      921.47407    
     35400  -98607.453      581.85216     -98025.601      195.51278      195.35375      921.86568    
     35500  -98585.785      580.51533     -98005.269      195.49833      195.34091      922.2573     
     35600  -98554.637      572.71734     -97981.92       195.48528      195.32499      922.64892    
     35700  -98533.536      578.60293     -97954.933      195.47177      195.31057      923.04053    
     35800  -98504.677      579.28515     -97925.392      195.45733      195.29708      923.43215    
     35900  -98478.287      581.81813     -97896.469      195.44415      195.28096      923.82377    
     36000  -98454.897      581.0724      -97873.825      195.4302       195.26671      924.21538    
     36100  -98428.255      574.18711     -97854.068      195.41473      195.25387      924.607      
     36200  -98405.202      579.31897     -97825.883      195.40062      195.23832      924.99862    
     36300  -98371.578      580.28306     -97791.295      195.38649      195.2241       925.39023    
     36400  -98347.103      583.52669     -97763.576      195.37145      195.2106       925.78185    
     36500  -98315.063      576.15433     -97738.908      195.35829      195.19411      926.17347    
     36600  -98293.323      579.93905     -97713.384      195.34492      195.17963      926.56508    
     36700  -98263.573      579.39504     -97684.178      195.32922      195.16556      926.9567     
     36800  -98237.047      583.67585     -97653.371      195.31592      195.1497       927.34832    
     36900  -98206.952      580.38543     -97626.566      195.30123      195.13636      927.73993    
     37000  -98180.467      573.09623     -97607.371      195.28515      195.12206      928.13155    
     37100  -98158.554      574.98666     -97583.567      195.27253      195.10612      928.52317    
     37200  -98130.214      577.55254     -97552.661      195.25851      195.09123      928.91478    
     37300  -98099.008      581.3326      -97517.675      195.24335      195.07632      929.3064     
     37400  -98066.692      582.48816     -97484.204      195.22954      195.06192      929.69802    
     37500  -98034.451      578.78018     -97455.671      195.21413      195.04797      930.08963    
     37600  -98020.253      582.47652     -97437.776      195.19836      195.03441      930.48125    
     37700  -97989.903      573.23217     -97416.671      195.18414      195.01955      930.87287    
     37800  -97967.413      575.54754     -97391.866      195.16934      195.00426      931.26448    
     37900  -97941.781      576.36788     -97365.413      195.15521      194.98921      931.6561     
     38000  -97912.592      579.1909      -97333.401      195.14205      194.97299      932.04772    
     38100  -97883.926      586.95302     -97296.973      195.12653      194.95862      932.43933    
     38200  -97858.037      588.08772     -97269.949      195.11117      194.94426      932.83095    
     38300  -97830.736      580.39068     -97250.345      195.09653      194.92922      933.22257    
     38400  -97807.271      580.9582      -97226.313      195.08022      194.91554      933.61418    
     38500  -97774.893      574.29668     -97200.596      195.06499      194.9015       934.0058     
     38600  -97749.746      578.25218     -97171.494      195.0502       194.88648      934.39742    
     38700  -97714.248      579.69968     -97134.549      195.03462      194.87215      934.78903    
     38800  -97689.417      585.76326     -97103.654      195.02054      194.8568       935.18065    
     38900  -97663.04       580.823       -97082.217      195.00639      194.84041      935.57227    
     39000  -97636.51       577.02338     -97059.487      194.99105      194.82615      935.96388    
     39100  -97609.84       575.59048     -97034.25       194.97603      194.81153      936.3555     
     39200  -97582.322      577.38259     -97004.939      194.96075      194.79604      936.74712    
     39300  -97553.12       582.05104     -96971.069      194.9446       194.78292      937.13873    
     39400  -97515.803      578.19598     -96937.607      194.92872      194.76756      937.53035    
     39500  -97494.684      579.38796     -96915.296      194.91403      194.75167      937.92197    
     39600  -97465.052      570.33119     -96894.721      194.89739      194.73761      938.31358    
     39700  -97443.769      577.12803     -96866.641      194.88165      194.72188      938.7052     
     39800  -97417.88       579.77596     -96838.104      194.8672       194.7058       939.09682    
     39900  -97390.743      579.95585     -96810.787      194.851        194.69035      939.48843    
     40000  -97359.487      573.63139     -96785.856      194.83625      194.67404      939.88005    
     40100  -97330.41       572.54405     -96757.866      194.82131      194.65718      940.27167    
     40200  -97302.145      580.00277     -96722.143      194.80461      194.64264      940.66328    
     40300  -97271.998      582.05539     -96689.942      194.78718      194.62778      941.0549     
     40400  -97243.065      575.87763     -96667.187      194.77082      194.61224      941.44652    
     40500  -97218.931      573.77833     -96645.153      194.7547       194.59679      941.83813    
     40600  -97191.23       575.23706     -96615.993      194.73854      194.58052      942.22975    
     40700  -97165.308      580.65445     -96584.654      194.72359      194.56409      942.62137    
     40800  -97133.233      579.54511     -96553.688      194.70724      194.54766      943.01298    
     40900  -97106.635      580.97988     -96525.655      194.69078      194.53202      943.4046     
     41000  -97081.733      577.05986     -96504.673      194.6747       194.51594      943.79622    
     41100  -97055.23       575.18588     -96480.044      194.65812      194.4995       944.18783    
     41200  -97024.652      577.06163     -96447.59       194.64179      194.4831       944.57945    
     41300  -96988.717      578.95715     -96409.76       194.62588      194.46683      944.97107    
     41400  -96958.367      576.97995     -96381.387      194.60835      194.45122      945.36268    
     41500  -96938.55       580.80434     -96357.746      194.59185      194.43394      945.7543     
     41600  -96912.513      578.12117     -96334.391      194.57639      194.41697      946.14592    
     41700  -96886.123      579.0006      -96307.123      194.55837      194.40072      946.53753    
     41800  -96850.279      572.70493     -96277.574      194.54219      194.38365      946.92915    
     41900  -96820.177      573.24823     -96246.929      194.52582      194.36712      947.32077    
     42000  -96797.724      580.98966     -96216.734      194.50705      194.35055      947.71238    
     42100  -96766.371      577.66409     -96188.707      194.49173      194.33339      948.104      
     42200  -96738.723      576.08784     -96162.635      194.47544      194.31514      948.49562    
     42300  -96716.937      578.02123     -96138.916      194.45742      194.29851      948.88723    
     42400  -96691.983      577.23186     -96114.751      194.44145      194.28173      949.27885    
     42500  -96661.388      571.09886     -96090.289      194.42411      194.26409      949.67047    
     42600  -96630.002      572.08412     -96057.917      194.40616      194.24797      950.06208    
     42700  -96592.283      573.61428     -96018.669      194.39037      194.23044      950.4537     
     42800  -96564.789      578.0995      -95986.69       194.37304      194.2123       950.84532    
     42900  -96541.93       581.76265     -95960.167      194.35459      194.19673      951.23693    
     43000  -96516.032      577.44356     -95938.588      194.33786      194.17981      951.62855    
     43100  -96485.656      574.41276     -95911.243      194.31929      194.16209      952.02017    
     43200  -96457.291      578.81427     -95878.476      194.30169      194.14581      952.41178    
     43300  -96426.127      579.1072      -95847.02       194.28718      194.12548      952.8034     
     43400  -96396.875      579.25205     -95817.623      194.26985      194.10621      953.19502    
     43500  -96370.284      578.94895     -95791.335      194.2519       194.0903       953.58663    
     43600  -96346.76       577.12276     -95769.637      194.23489      194.07126      953.97825    
     43700  -96312.492      565.82261     -95746.669      194.21544      194.05431      954.36987    
     43800  -96283.651      576.5863      -95707.065      194.19696      194.03834      954.76148    
     43900  -96248.755      576.9311      -95671.824      194.17971      194.01897      955.1531     
     44000  -96224.598      580.80788     -95643.79       194.16116      194.00117      955.54472    
     44100  -96193.945      575.10211     -95618.843      194.14329      193.98374      955.93633    
     44200  -96169.834      576.23208     -95593.601      194.1267       193.96383      956.32795    
     44300  -96143.822      578.32371     -95565.498      194.10857      193.94517      956.71957    
     44400  -96111.146      577.05467     -95534.092      194.09136      193.9273       957.11118    
     44500  -96080.351      582.44034     -95497.911      194.07434      193.90684      957.5028     
     44600  -96052.065      587.72323     -95464.341      194.05573      193.88972      957.89442    
     44700  -96022.012      581.59147     -95440.421      194.03644      193.87292      958.28603    
     44800  -95997.377      579.56142     -95417.816      194.01832      193.85357      958.67765    
     44900  -95962.447      574.0729      -95388.374      194.00035      193.83685      959.06927    
     45000  -95938.973      581.40193     -95357.571      193.98067      193.81892      959.46088    
     45100  -95904.077      576.74011     -95327.337      193.96381      193.79974      959.8525     
     45200  -95879.268      577.28038     -95301.988      193.9451       193.78244      960.24412    
     45300  -95848.348      571.82296     -95276.525      193.92642      193.76426      960.63573    
     45400  -95824.163      579.94604     -95244.217      193.91005      193.74434      961.02735    
     45500  -95782.115      577.25976     -95204.855      193.89228      193.72573      961.41897    
     45600  -95754.732      581.13517     -95173.597      193.87394      193.70697      961.81058    
     45700  -95728.808      581.11075     -95147.697      193.85627      193.6882       962.2022     
     45800  -95698.31       577.5951      -95120.715      193.83715      193.67135      962.59382    
     45900  -95669.234      575.09284     -95094.141      193.81756      193.65334      962.98543    
     46000  -95641.568      574.86057     -95066.708      193.79956      193.63593      963.37705    
     46100  -95615.508      575.385       -95040.123      193.77919      193.61915      963.76867    
     46200  -95584.97       566.4733      -95018.497      193.76062      193.60086      964.16028    
     46300  -95562.366      577.23162     -94985.135      193.74398      193.58167      964.5519     
     46400  -95519.387      574.36599     -94945.021      193.7261       193.56272      964.94352    
     46500  -95490.631      577.96725     -94912.664      193.70893      193.54396      965.33513    
     46600  -95466.682      582.34884     -94884.333      193.69055      193.52559      965.72675    
     46700  -95437.061      576.74862     -94860.312      193.67123      193.50888      966.11837    
     46800  -95413.677      580.7227      -94832.954      193.65257      193.49051      966.50998    
     46900  -95378.232      577.29415     -94800.938      193.63435      193.47293      966.9016     
     47000  -95344.882      576.6149      -94768.268      193.61501      193.45531      967.29322    
     47100  -95322.147      586.22717     -94735.919      193.59621      193.43709      967.68484    
     47200  -95281.832      574.21882     -94707.613      193.57694      193.42031      968.07645    
     47300  -95259.04       571.24964     -94687.79       193.55784      193.40193      968.46807    
     47400  -95229.311      573.5576      -94655.753      193.54069      193.38238      968.85969    
     47500  -95192.655      573.58387     -94619.071      193.52261      193.36404      969.2513     
     47600  -95165.627      580.10308     -94585.524      193.50396      193.34488      969.64292    
     47700  -95130.521      571.21271     -94559.308      193.48662      193.32563      970.03454    
     47800  -95113.725      575.31997     -94538.405      193.46761      193.30831      970.42615    
     47900  -95083.963      579.20052     -94504.763      193.44768      193.28977      970.81777    
     48000  -95052.886      584.19818     -94468.688      193.42992      193.27138      971.20939    
     48100  -95012.153      577.61156     -94434.542      193.40983      193.25456      971.601      
     48200  -94988.724      578.4696      -94410.254      193.39073      193.23602      971.99262    
     48300  -94966.521      580.4049      -94386.116      193.37349      193.21715      972.38424    
     48400  -94930.857      577.83659     -94353.021      193.35377      193.20014      972.77585    
     48500  -94898.857      580.7852      -94318.072      193.33536      193.18093      973.16747    
     48600  -94856.886      575.79444     -94281.091      193.31745      193.16293      973.55909    
     48700  -94830.597      584.25282     -94246.345      193.29816      193.14479      973.9507     
     48800  -94803.839      578.74014     -94225.099      193.28139      193.12431      974.34232    
     48900  -94778.011      579.35481     -94198.656      193.26428      193.10535      974.73394    
     49000  -94750.463      580.08781     -94170.375      193.24422      193.08787      975.12555    
     49100  -94717.962      575.42995     -94142.532      193.22544      193.06978      975.51717    
     49200  -94692.202      578.57577     -94113.626      193.20658      193.0522       975.90879    
     49300  -94659.459      575.38706     -94084.072      193.18635      193.03465      976.3004     
     49400  -94630.243      579.05321     -94051.19       193.16874      193.01587      976.69202    
     49500  -94591.944      578.10074     -94013.844      193.15049      192.99737      977.08364    
     49600  -94562.055      581.95675     -93980.099      193.13161      192.97857      977.47525    
     49700  -94530.187      573.10468     -93957.082      193.1153       192.95882      977.86687    
     49800  -94503.583      574.41144     -93929.172      193.09703      192.94013      978.25849    
     49900  -94476.184      579.57422     -93896.61       193.07784      192.92241      978.6501     
     50000  -94438.55       574.96075     -93863.59       193.06038      192.90399      979.04172    
     50100  -94412.631      576.87306     -93835.758      193.04136      192.8858       979.43334    
     50200  -94383.797      572.18536     -93811.611      193.0236       192.86732      979.82495    
     50300  -94354.25       575.52033     -93778.73       193.0058       192.84883      980.21657    
     50400  -94320.337      580.3164      -93740.021      192.98628      192.83182      980.60819    
     50500  -94284.751      581.39274     -93703.359      192.96754      192.81394      980.9998     
     50600  -94257.393      578.72668     -93678.666      192.9499       192.79582      981.39142    
     50700  -94230.435      576.2036      -93654.232      192.93108      192.77749      981.78304    
     50800  -94196.866      574.46228     -93622.404      192.91336      192.75907      982.17465    
     50900  -94170.264      582.60129     -93587.663      192.89646      192.74015      982.56627    
     51000  -94134.656      579.58738     -93555.068      192.87829      192.72064      982.95789    
     51100  -94106.189      577.00218     -93529.187      192.86141      192.70218      983.3495     
     51200  -94078.261      576.66819     -93501.593      192.84297      192.68398      983.74112    
     51300  -94045.366      577.98264     -93467.383      192.82386      192.66586      984.13274    
     51400  -94009.838      578.93384     -93430.904      192.80609      192.64834      984.52435    
     51500  -93976.451      583.73337     -93392.718      192.78763      192.6296       984.91597    
     51600  -93943.598      578.92185     -93364.676      192.76915      192.61185      985.30759    
     51700  -93918.713      578.9428      -93339.77       192.7506       192.59402      985.6992     
     51800  -93884.939      574.22695     -93310.712      192.73333      192.57547      986.09082    
     51900  -93860.698      578.97954     -93281.719      192.71535      192.55673      986.48244    
     52000  -93829.442      577.22451     -93252.217      192.69795      192.53891      986.87405    
     52100  -93793.648      571.17172     -93222.476      192.68051      192.52026      987.26567    
     52200  -93769.245      571.13981     -93198.105      192.66231      192.50199      987.65729    
     52300  -93733.17       567.96203     -93165.208      192.64557      192.48395      988.0489     
     52400  -93698.432      574.29432     -93124.138      192.62813      192.46515      988.44052    
     52500  -93662.337      576.89272     -93085.444      192.60932      192.44858      988.83214    
     52600  -93637.939      583.06186     -93054.877      192.59154      192.43141      989.22375    
     52700  -93605.471      579.58523     -93025.886      192.57402      192.41353      989.61537    
     52800  -93576.407      579.66453     -92996.742      192.55526      192.39613      990.00699    
     52900  -93544.429      579.10753     -92965.321      192.53867      192.37896      990.3986     
     53000  -93512.556      579.65975     -92932.896      192.52085      192.36079      990.79022    
     53100  -93481.437      579.92258     -92901.514      192.50292      192.34317      991.18184    
     53200  -93446.899      578.06539     -92868.834      192.48751      192.32558      991.57345    
     53300  -93409.697      573.11023     -92836.587      192.46893      192.30737      991.96507    
     53400  -93386.734      579.99299     -92806.741      192.45122      192.29115      992.35669    
     53500  -93353.473      574.85072     -92778.622      192.43562      192.27319      992.7483     
     53600  -93321.18       575.00414     -92746.176      192.41781      192.25506      993.13992    
     53700  -93287.916      576.38706     -92711.529      192.40041      192.23894      993.53154    
     53800  -93255.404      577.23718     -92678.166      192.38318      192.2227       993.92315    
     53900  -93226.511      580.49156     -92646.02       192.36414      192.20619      994.31477    
     54000  -93194.259      574.94113     -92619.318      192.3465       192.19004      994.70639    
     54100  -93162.309      573.88788     -92588.422      192.33045      192.17321      995.098      
     54200  -93129.138      578.17356     -92550.965      192.31218      192.15599      995.48962    
     54300  -93093.844      579.06654     -92514.777      192.29618      192.13887      995.88124    
     54400  -93061.037      578.52114     -92482.516      192.28105      192.12015      996.27285    
     54500  -93034.633      577.1643      -92457.469      192.26317      192.1033       996.66447    
     54600  -93002.059      577.17904     -92424.88       192.24595      192.08712      997.05609    
     54700  -92968.748      582.20345     -92386.545      192.22866      192.07024      997.4477     
     54800  -92922.606      574.57246     -92348.034      192.21092      192.05455      997.83932    
     54900  -92897.482      580.50734     -92316.975      192.19439      192.03619      998.23094    
     55000  -92863.576      574.27346     -92289.303      192.1782       192.01949      998.62255    
     55100  -92834.456      578.67401     -92255.782      192.15974      192.00335      999.01417    
     55200  -92803.13       580.22147     -92222.908      192.14312      191.98599      999.40579    
     55300  -92770.237      576.68753     -92193.549      192.12546      191.97065      999.7974     
     55400  -92739.577      577.5598      -92162.017      192.10707      191.95461      1000.189     
     55500  -92703.98       578.61368     -92125.366      192.09138      191.93701      1000.5806    
     55600  -92669.102      579.65026     -92089.452      192.07523      191.92002      1000.9723    
     55700  -92631.512      575.45979     -92056.052      192.05899      191.90202      1001.3639    
     55800  -92605.725      579.61341     -92026.112      192.04379      191.88435      1001.7555    
     55900  -92571.842      575.94308     -91995.899      192.02644      191.86836      1002.1471    
     56000  -92540.537      579.31307     -91961.224      192.0089       191.85153      1002.5387    
     56100  -92504.608      578.14809     -91926.459      191.9922       191.83567      1002.9303    
     56200  -92470.584      570.28244     -91900.301      191.97398      191.82026      1003.322     
     56300  -92439.083      575.33062     -91863.752      191.95727      191.80306      1003.7136    
     56400  -92399.688      580.0046      -91819.683      191.9406       191.78636      1004.1052    
     56500  -92367.797      588.61285     -91779.184      191.92357      191.77056      1004.4968    
     56600  -92324.592      576.28722     -91748.305      191.90704      191.7527       1004.8884    
     56700  -92292.194      575.65771     -91716.537      191.89034      191.73635      1005.28      
     56800  -92260.038      577.19481     -91682.843      191.87451      191.71939      1005.6717    
     56900  -92223.715      572.72218     -91650.993      191.85853      191.70099      1006.0633    
     57000  -92193.59       575.43873     -91618.151      191.84177      191.68491      1006.4549    
     57100  -92162.169      579.03176     -91583.137      191.82596      191.66795      1006.8465    
     57200  -92125.824      579.58749     -91546.237      191.80924      191.6508       1007.2381    
     57300  -92083.533      573.94028     -91509.593      191.79174      191.63548      1007.6297    
     57400  -92054.969      581.27834     -91473.691      191.77556      191.61929      1008.0214    
     57500  -92019.92       580.59392     -91439.326      191.75773      191.60285      1008.413     
     57600  -91981.163      575.03465     -91406.128      191.74054      191.58716      1008.8046    
     57700  -91951.002      580.68939     -91370.313      191.72507      191.5706       1009.1962    
     57800  -91911.152      576.67247     -91334.48       191.70704      191.55349      1009.5878    
     57900  -91880.299      579.65831     -91300.64       191.69089      191.53766      1009.9794    
     58000  -91839.539      573.58612     -91265.953      191.67588      191.51961      1010.3711    
     58100  -91810.194      581.68203     -91228.512      191.65912      191.50147      1010.7627    
     58200  -91775.292      584.68571     -91190.606      191.64349      191.48474      1011.1543    
     58300  -91736.871      580.01452     -91156.857      191.62816      191.46693      1011.5459    
     58400  -91699.232      576.70258     -91122.529      191.61025      191.45024      1011.9375    
     58500  -91660.496      575.55486     -91084.941      191.59355      191.43409      1012.3291    
     58600  -91624.46       577.53682     -91046.923      191.57658      191.41793      1012.7208    
     58700  -91592.001      581.94508     -91010.056      191.55746      191.40218      1013.1124    
     58800  -91555.391      580.62923     -90974.762      191.54142      191.38583      1013.504     
     58900  -91518.213      579.69044     -90938.522      191.52523      191.36862      1013.8956    
     59000  -91482.668      580.0857      -90902.582      191.50801      191.35175      1014.2872    
     59100  -91442.397      577.05809     -90865.339      191.49258      191.33406      1014.6788    
     59200  -91406.461      578.17202     -90828.289      191.47648      191.31671      1015.0705    
     59300  -91371.25       580.36775     -90790.882      191.45971      191.29968      1015.4621    
     59400  -91334.691      578.7814      -90755.91       191.44363      191.28244      1015.8537    
     59500  -91299.006      578.69744     -90720.309      191.42769      191.26555      1016.2453    
     59600  -91260.206      580.27023     -90679.936      191.41011      191.24858      1016.6369    
     59700  -91214.904      574.14209     -90640.762      191.39393      191.23162      1017.0285    
     59800  -91182.095      577.83019     -90604.265      191.377        191.21554      1017.4202    
     59900  -91144.017      575.0605      -90568.957      191.3583       191.19952      1017.8118    
     60000  -91103.176      573.44671     -90529.729      191.3417       191.18339      1018.2034    
     60100  -91069.973      580.52475     -90489.449      191.32432      191.16727      1018.595     
     60200  -91030.903      578.70234     -90452.201      191.30752      191.15011      1018.9866    
     60300  -90990.799      574.26831     -90416.531      191.292        191.13297      1019.3782    
     60400  -90959.16       581.2496      -90377.91       191.27521      191.11551      1019.7699    
     60500  -90916.108      579.19976     -90336.908      191.25884      191.09813      1020.1615    
     60600  -90874.425      578.28764     -90296.137      191.24282      191.08154      1020.5531    
     60700  -90841.959      582.88605     -90259.073      191.22627      191.06425      1020.9447    
     60800  -90807.092      580.02031     -90227.071      191.20936      191.04705      1021.3363    
     60900  -90762.653      576.38292     -90186.27       191.19232      191.03134      1021.7279    
     61000  -90719.597      578.41487     -90141.182      191.17453      191.01495      1022.1196    
     61100  -90677.71       580.73804     -90096.972      191.15675      190.99885      1022.5112    
     61200  -90637.316      579.70614     -90057.61       191.1389       190.98343      1022.9028    
     61300  -90601.044      576.86473     -90024.179      191.12167      190.96655      1023.2944    
     61400  -90558.199      574.37784     -89983.821      191.10469      190.94897      1023.686     
     61500  -90520.882      579.13514     -89941.747      191.08853      190.93139      1024.0776    
     61600  -90480.259      576.45271     -89903.807      191.07261      190.91321      1024.4693    
     61700  -90440.944      572.55688     -89868.387      191.05567      190.89542      1024.8609    
     61800  -90404.958      580.12618     -89824.832      191.03839      190.87852      1025.2525    
     61900  -90358.143      578.90135     -89779.242      191.02142      190.86106      1025.6441    
     62000  -90312.649      577.81926     -89734.829      191.00357      190.84382      1026.0357    
     62100  -90269.622      572.28106     -89697.341      190.98576      190.82722      1026.4273    
     62200  -90236.305      574.16162     -89662.143      190.96866      190.80968      1026.819     
     62300  -90192.688      576.40608     -89616.282      190.94982      190.79336      1027.2106    
     62400  -90153.055      584.04403     -89569.011      190.93206      190.7768       1027.6022    
     62500  -90106.629      578.97134     -89527.657      190.9145       190.75918      1027.9938    
     62600  -90065.572      574.65006     -89490.922      190.89566      190.74254      1028.3854    
     62700  -90024.385      575.64394     -89448.741      190.87922      190.72413      1028.777     
     62800  -89983.614      578.76222     -89404.852      190.86317      190.70523      1029.1687    
     62900  -89945.03       578.79722     -89366.233      190.84524      190.68683      1029.5603    
     63000  -89906.1        576.88816     -89329.211      190.82898      190.66813      1029.9519    
     63100  -89855.472      573.67023     -89281.802      190.81127      190.65057      1030.3435    
     63200  -89816.111      584.36775     -89231.744      190.79161      190.6333       1030.7351    
     63300  -89766.677      580.70179     -89185.975      190.77445      190.6155       1031.1267    
     63400  -89725.591      574.93458     -89150.657      190.75561      190.59838      1031.5184    
     63500  -89689.776      581.39019     -89108.386      190.73564      190.58084      1031.91      
     63600  -89641.227      578.44302     -89062.784      190.71856      190.56321      1032.3016    
     63700  -89590.257      572.15803     -89018.099      190.6998       190.54513      1032.6932    
     63800  -89556.121      578.73866     -88977.383      190.68172      190.52644      1033.0848    
     63900  -89514.277      578.09825     -88936.179      190.66489      190.50732      1033.4764    
     64000  -89459.869      571.03138     -88888.837      190.64677      190.48911      1033.8681    
     64100  -89418.917      577.30149     -88841.616      190.62908      190.46962      1034.2597    
     64200  -89375.214      579.84996     -88795.364      190.61139      190.45057      1034.6513    
     64300  -89336.387      579.49538     -88756.891      190.59262      190.43269      1035.0429    
     64400  -89286.232      573.95734     -88712.275      190.57399      190.41397      1035.4345    
     64500  -89238.673      575.43494     -88663.238      190.55473      190.39509      1035.8261    
     64600  -89194.34       577.01427     -88617.326      190.5358       190.37798      1036.2178    
     64700  -89152.038      576.50896     -88575.529      190.51639      190.35905      1036.6094    
     64800  -89109.991      580.24032     -88529.751      190.49683      190.3406       1037.001     
     64900  -89063.009      581.107       -88481.902      190.47777      190.32229      1037.3926    
     65000  -89013.423      578.88848     -88434.534      190.45928      190.30155      1037.7842    
     65100  -88967.35       579.87103     -88387.479      190.44114      190.28209      1038.1758    
     65200  -88918.109      578.5242      -88339.585      190.42278      190.26219      1038.5675    
     65300  -88873.699      579.22282     -88294.476      190.40398      190.24182      1038.9591    
     65400  -88826.392      576.81764     -88249.574      190.38554      190.22289      1039.3507    
     65500  -88789.204      586.53255     -88202.671      190.36585      190.20291      1039.7423    
     65600  -88733.089      577.6887      -88155.401      190.34713      190.1834       1040.1339    
     65700  -88682.971      575.37221     -88107.599      190.32707      190.16444      1040.5255    
     65800  -88639.854      580.10058     -88059.754      190.30651      190.14574      1040.9172    
     65900  -88591.19       578.12086     -88013.069      190.28668      190.12702      1041.3088    
     66000  -88550.418      583.42286     -87966.995      190.26606      190.1079       1041.7004    
     66100  -88500.482      580.33036     -87920.152      190.24618      190.08832      1042.092     
     66200  -88459.917      587.23208     -87872.685      190.22776      190.06781      1042.4836    
     66300  -88403.702      579.66328     -87824.038      190.2085       190.04722      1042.8752    
     66400  -88354.952      578.98606     -87775.966      190.18962      190.02597      1043.2669    
     66500  -88308.73       580.1747      -87728.555      190.17034      190.0054       1043.6585    
     66600  -88254.597      575.12209     -87679.475      190.15058      189.98645      1044.0501    
     66700  -88211.455      580.69929     -87630.755      190.12994      189.96553      1044.4417    
     66800  -88162.717      582.13461     -87580.582      190.1098       189.94645      1044.8333    
     66900  -88112.561      581.77335     -87530.787      190.08948      189.92709      1045.2249    
     67000  -88059.033      578.60233     -87480.431      190.06865      189.90696      1045.6166    
     67100  -88013.842      582.02465     -87431.817      190.04772      189.88802      1046.0082    
     67200  -87962.775      580.38009     -87382.395      190.02753      189.86816      1046.3998    
     67300  -87913.332      578.31611     -87335.015      190.00694      189.8475       1046.7914    
     67400  -87865.996      581.09908     -87284.897      189.98666      189.82805      1047.183     
     67500  -87816.739      581.2013      -87235.537      189.96675      189.80717      1047.5746    
     67600  -87764.56       578.70511     -87185.854      189.94638      189.78571      1047.9663    
     67700  -87714.553      580.56297     -87133.99       189.92678      189.76442      1048.3579    
     67800  -87661.201      578.55317     -87082.648      189.90755      189.74315      1048.7495    
     67900  -87614.885      582.48809     -87032.397      189.88627      189.72199      1049.1411    
     68000  -87566.151      585.99736     -86980.154      189.86508      189.70192      1049.5327    
     68100  -87515.075      587.14453     -86927.931      189.84414      189.68269      1049.9243    
     68200  -87455.279      577.9846      -86877.295      189.82104      189.662        1050.316     
     68300  -87409.593      583.52084     -86826.072      189.79943      189.64215      1050.7076    
     68400  -87358.417      584.56023     -86773.856      189.77902      189.62195      1051.0992    
     68500  -87302.586      580.20551     -86722.38       189.7575       189.59955      1051.4908    
     68600  -87256.48       584.83389     -86671.646      189.73768      189.57877      1051.8824    
     68700  -87197.828      577.88629     -86619.942      189.71726      189.55694      1052.274     
     68800  -87148.627      581.03637     -86567.59       189.69564      189.53535      1052.6657    
     68900  -87097.669      584.14303     -86513.526      189.6748       189.51413      1053.0573    
     69000  -87048.671      586.98649     -86461.685      189.65472      189.49284      1053.4489    
     69100  -86989.332      578.23318     -86411.099      189.63268      189.47062      1053.8405    
     69200  -86936.445      578.52569     -86357.92       189.61072      189.4496       1054.2321    
     69300  -86885.883      580.88735     -86304.996      189.58993      189.42926      1054.6237    
     69400  -86836.359      587.41949     -86248.939      189.56665      189.40747      1055.0154    
     69500  -86774.577      581.65998     -86192.917      189.54489      189.38704      1055.407     
     69600  -86721.27       582.87336     -86138.397      189.52357      189.36584      1055.7986    
     69700  -86668.783      585.15586     -86083.627      189.50115      189.34423      1056.1902    
     69800  -86617.175      585.88027     -86031.295      189.48005      189.32229      1056.5818    
     69900  -86566.976      589.18391     -85977.792      189.45916      189.29962      1056.9734    
     70000  -86506.832      585.75119     -85921.081      189.43784      189.27795      1057.3651    
     70100  -86456.183      588.15048     -85868.033      189.41677      189.25469      1057.7567    
     70200  -86402.182      588.07238     -85814.11       189.39576      189.23296      1058.1483    
     70300  -86350.222      589.14522     -85761.077      189.37384      189.21126      1058.5399    
     70400  -86290.217      583.35533     -85706.861      189.35173      189.18888      1058.9315    
     70500  -86246.708      594.8939      -85651.814      189.32839      189.16894      1059.3231    
     70600  -86179.936      583.67525     -85596.261      189.30529      189.14794      1059.7148    
     70700  -86119.119      581.5702      -85537.549      189.28344      189.12562      1060.1064    
     70800  -86066.024      586.14351     -85479.881      189.2609       189.10375      1060.498     
     70900  -86014.368      588.90701     -85425.461      189.24011      189.08117      1060.8896    
     71000  -85953.378      583.03627     -85370.342      189.21882      189.05813      1061.2812    
     71100  -85900.31       588.56056     -85311.75       189.19641      189.03565      1061.6728    
     71200  -85846.321      593.09139     -85253.229      189.17585      189.01268      1062.0645    
     71300  -85789.154      592.96434     -85196.19       189.15308      188.99055      1062.4561    
     71400  -85721.752      586.14338     -85135.609      189.13054      188.96905      1062.8477    
     71500  -85671.678      593.90063     -85077.778      189.10929      188.94627      1063.2393    
     71600  -85613.351      593.36981     -85019.981      189.08646      188.92419      1063.6309    
     71700  -85554.468      593.99084     -84960.477      189.06424      188.9025       1064.0225    
     71800  -85489.538      588.31684     -84901.221      189.04188      188.88026      1064.4142    
     71900  -85438.356      596.26592     -84842.09       189.01883      188.85939      1064.8058    
     72000  -85377.596      596.94889     -84780.647      188.99678      188.83682      1065.1974    
     72100  -85309.464      589.22535     -84720.239      188.97433      188.81467      1065.589     
     72200  -85256.723      592.59385     -84664.129      188.95243      188.79279      1065.9806    
     72300  -85199.553      594.96549     -84604.588      188.93105      188.76925      1066.3722    
     72400  -85144.615      601.71488     -84542.9        188.91023      188.74652      1066.7639    
     72500  -85079.647      596.70746     -84482.94       188.88862      188.72312      1067.1555    
     72600  -85022.812      600.34871     -84422.463      188.86689      188.70141      1067.5471    
     72700  -84952.177      591.85707     -84360.32       188.84338      188.67984      1067.9387    
     72800  -84896.018      599.73658     -84296.282      188.82088      188.65923      1068.3303    
[...]
     81600  -104970.25      576.83982     -104393.41      189.11718      188.0606       1102.7926    
     81700  -104984.5       580.82471     -104403.68      189.1292       188.05844      1103.1842    
     81800  -104971.47      561.51425     -104409.95      189.14361      188.05809      1103.5758    
     81900  -104968.08      574.34256     -104393.74      189.15656      188.0567       1103.9674    
     82000  -104954.19      576.64248     -104377.54      189.1686       188.05491      1104.3591    
     82100  -104954.17      588.13877     -104366.03      189.18364      188.05475      1104.7507    
     82200  -104921.56      564.24297     -104357.32      189.19886      188.05553      1105.1423    
     82300  -104902.06      571.04603     -104331.01      189.21132      188.0533       1105.5339    
     82400  -104852.84      565.69014     -104287.15      189.22626      188.05358      1105.9255    
     82500  -104805.42      573.95533     -104231.46      189.24236      188.05393      1106.3171    
     82600  -104766.54      584.86757     -104181.67      189.25604      188.05131      1106.7088    
     82700  -104733.05      585.68831     -104147.36      189.26996      188.05095      1107.1004    
     82800  -104705.44      581.44406     -104124         189.28487      188.05224      1107.492     
     82900  -104683.98      572.96454     -104111.02      189.29836      188.04982      1107.8836    
     83000  -104659.76      561.05475     -104098.71      189.31213      188.04906      1108.2752    
     83100  -104630.37      572.87943     -104057.49      189.32851      188.05075      1108.6668    
     83200  -104605.81      599.2894      -104006.52      189.34284      188.04981      1109.0585    
     83300  -104576.63      590.55306     -103986.07      189.35675      188.05094      1109.4501    
     83400  -104569.22      576.8908      -103992.33      189.37312      188.05244      1109.8417    
     83500  -104579.19      576.96435     -104002.22      189.38728      188.05395      1110.2333    
     83600  -104586.39      581.39174     -104005         189.40125      188.05622      1110.6249    
     83700  -104617.11      598.19225     -104018.92      189.41825      188.05876      1111.0165    
     83800  -104636.91      569.80789     -104067.1       189.43504      188.06173      1111.4082    
     83900  -104666.76      562.10429     -104104.66      189.4524       188.06572      1111.7998    
     84000  -104680.54      570.05078     -104110.49      189.47198      188.06979      1112.1914    
     84100  -104697.89      592.54096     -104105.35      189.49115      188.07294      1112.583     
     84200  -104726.3       594.26502     -104132.03      189.51027      188.07726      1112.9746    
     84300  -104751.45      570.03719     -104181.41      189.53019      188.08255      1113.3662    
     84400  -104771.68      559.2469      -104212.43      189.55044      188.08711      1113.7579    
     84500  -104786.61      573.38641     -104213.22      189.57037      188.0927       1114.1495    
     84600  -104783.51      580.47868     -104203.03      189.59191      188.09946      1114.5411    
     84700  -104795.66      589.98369     -104205.67      189.61422      188.10465      1114.9327    
     84800  -104812.08      580.02217     -104232.06      189.63677      188.1099       1115.3243    
     84900  -104816.36      560.50975     -104255.85      189.65829      188.11656      1115.7159    
     85000  -104807.28      561.71412     -104245.57      189.67976      188.12393      1116.1076    
     85100  -104794.17      584.20533     -104209.97      189.70206      188.13061      1116.4992    
     85200  -104755.65      574.54592     -104181.11      189.72512      188.13816      1116.8908    
     85300  -104736.28      584.29677     -104151.98      189.74797      188.14791      1117.2824    
     85400  -104704.57      574.7556      -104129.82      189.77177      188.15859      1117.674     
     85500  -104678.98      571.26852     -104107.71      189.79756      188.16762      1118.0656    
     85600  -104633.52      561.29333     -104072.22      189.82423      188.17837      1118.4573    
     85700  -104617.61      591.41611     -104026.2       189.8529       188.18948      1118.8489    
     85800  -104616.97      607.88254     -104009.09      189.88273      188.20039      1119.2405    
     85900  -104629.12      583.76057     -104045.36      189.91287      188.21198      1119.6321    
     86000  -104645.58      554.92344     -104090.65      189.9443       188.2249       1120.0237    
     86100  -104643.72      549.37123     -104094.35      189.97616      188.23829      1120.4153    
     86200  -104639.09      584.5828      -104054.5       190.00929      188.25181      1120.807     
     86300  -104635.78      610.95188     -104024.83      190.04384      188.26795      1121.1986    
     86400  -104655.62      595.74922     -104059.87      190.07847      188.28375      1121.5902    
     86500  -104697.59      569.66514     -104127.92      190.11541      188.29949      1121.9818    
     86600  -104728.5       556.64589     -104171.85      190.15357      188.31667      1122.3734    
     86700  -104734.45      561.29725     -104173.16      190.19083      188.33432      1122.765     
     86800  -104743.49      594.19566     -104149.3       190.23033      188.34988      1123.1567    
     86900  -104748.71      599.11487     -104149.6       190.26921      188.36793      1123.5483    
     87000  -104770.49      581.50952     -104188.98      190.3066       188.38811      1123.9399    
     87100  -104796.28      562.23957     -104234.04      190.3469       188.40433      1124.3315    
     87200  -104791.57      546.67899     -104244.89      190.38821      188.42233      1124.7231    
     87300  -104775.68      569.69613     -104205.99      190.4265       188.44302      1125.1147    
     87400  -104746.91      592.96471     -104153.94      190.46648      188.46018      1125.5064    
     87500  -104731.64      599.74959     -104131.9       190.50668      188.47638      1125.898     
     87600  -104716.41      576.42769     -104139.98      190.54565      188.49698      1126.2896    
     87700  -104702.15      559.42529     -104142.72      190.58452      188.5139       1126.6812    
     87800  -104683.73      563.93338     -104119.8       190.62351      188.52793      1127.0728    
     87900  -104659.43      584.20893     -104075.22      190.662        188.54663      1127.4644    
     88000  -104630.3       590.05098     -104040.25      190.7          188.56418      1127.8561    
     88100  -104614.45      580.05843     -104034.39      190.73807      188.57829      1128.2477    
     88200  -104605.31      568.55041     -104036.75      190.77846      188.5965       1128.6393    
     88300  -104592.91      566.7849      -104026.12      190.81809      188.61586      1129.0309    
     88400  -104587.32      581.42386     -104005.9       190.85733      188.63119      1129.4225    
     88500  -104577.66      582.32138     -103995.34      190.90038      188.6501       1129.8141    
     88600  -104572.61      579.707       -103992.91      190.94265      188.66972      1130.2058    
     88700  -104577.62      584.56841     -103993.05      190.98393      188.68875      1130.5974    
     88800  -104593.54      585.16621     -104008.37      191.02979      188.70792      1130.989     
     88900  -104617.69      580.25433     -104037.44      191.0751       188.72687      1131.3806    
     89000  -104629.31      565.74532     -104063.56      191.11904      188.74552      1131.7722    
     89100  -104646.7       572.73676     -104073.97      191.16519      188.76362      1132.1638    
     89200  -104664.96      584.86564     -104080.09      191.21138      188.78141      1132.5555    
     89300  -104676.64      580.58031     -104096.06      191.25458      188.7988       1132.9471    
     89400  -104696.72      575.60383     -104121.11      191.29843      188.81771      1133.3387    
     89500  -104715.81      569.66739     -104146.14      191.34343      188.83587      1133.7303    
     89600  -104733.74      573.65081     -104160.09      191.38598      188.85331      1134.1219    
     89700  -104745.53      580.6468      -104164.89      191.42964      188.87147      1134.5135    
     89800  -104752.25      579.67179     -104172.58      191.47445      188.88898      1134.9052    
     89900  -104762.63      574.93928     -104187.69      191.51555      188.90691      1135.2968    
     90000  -104775.01      572.3874      -104202.62      191.5571       188.92456      1135.6884    
     90100  -104771.05      565.49319     -104205.55      191.60043      188.94241      1136.08      
     90200  -104765.94      574.07953     -104191.87      191.64265      188.96046      1136.4716    
     90300  -104756.99      584.35275     -104172.64      191.68413      188.97852      1136.8632    
     90400  -104748.14      584.63206     -104163.51      191.72617      188.99717      1137.2549    
     90500  -104741.49      574.70059     -104166.79      191.76856      189.01552      1137.6465    
     90600  -104733.44      567.98391     -104165.46      191.81032      189.0327       1138.0381    
     90700  -104712.67      568.60563     -104144.07      191.85088      189.0518       1138.4297    
     90800  -104691.5       581.50079     -104110         191.89162      189.07184      1138.8213    
     90900  -104678.73      592.09624     -104086.63      191.9345       189.0888       1139.2129    
     91000  -104672.5       587.20825     -104085.29      191.97608      189.10662      1139.6046    
     91100  -104663.6       570.12618     -104093.48      192.01571      189.1277       1139.9962    
     91200  -104660.94      572.66928     -104088.27      192.0587       189.14706      1140.3878    
     91300  -104660.03      583.71274     -104076.32      192.09959      189.16679      1140.7794    
     91400  -104658.91      586.62441     -104072.29      192.14063      189.1877       1141.171     
     91500  -104655.6       575.76375     -104079.84      192.18432      189.20766      1141.5626    
     91600  -104668.19      575.64868     -104092.54      192.22714      189.22602      1141.9543    
     91700  -104677.85      578.37205     -104099.47      192.26847      189.24446      1142.3459    
     91800  -104673.88      574.42399     -104099.46      192.31115      189.26207      1142.7375    
     91900  -104683.71      582.99931     -104100.71      192.35235      189.27926      1143.1291    
     92000  -104698.64      585.84699     -104112.8       192.39236      189.296        1143.5207    
     92100  -104711.56      577.07244     -104134.49      192.43375      189.31145      1143.9123    
     92200  -104716.33      565.21581     -104151.11      192.47414      189.32739      1144.304     
     92300  -104722.9       572.502       -104150.4       192.51143      189.34379      1144.6956    
     92400  -104720.81      577.43535     -104143.38      192.55008      189.35797      1145.0872    
     92500  -104725.29      582.69649     -104142.59      192.58927      189.37184      1145.4788    
     92600  -104727.28      575.91991     -104151.36      192.62389      189.38643      1145.8704    
     92700  -104736.75      574.44195     -104162.31      192.65735      189.40106      1146.262     
     92800  -104731.18      569.83463     -104161.34      192.69141      189.41483      1146.6537    
     92900  -104732.86      585.14111     -104147.72      192.72176      189.42796      1147.0453    
     93000  -104716.49      581.07224     -104135.41      192.75137      189.44046      1147.4369    
     93100  -104708.65      575.37981     -104133.27      192.78091      189.4521       1147.8285    
     93200  -104708.07      576.6012      -104131.47      192.80608      189.46429      1148.2201    
     93300  -104702.57      578.3167      -104124.26      192.83045      189.47664      1148.6117    
     93400  -104690.57      578.06006     -104112.51      192.8546       189.48795      1149.0034    
     93500  -104686.33      580.7593      -104105.57      192.87503      189.49984      1149.395     
     93600  -104691.21      582.35537     -104108.85      192.89459      189.51278      1149.7866    
     93700  -104689.04      570.35143     -104118.69      192.91405      189.52629      1150.1782    
     93800  -104691.67      571.18318     -104120.49      192.93165      189.53951      1150.5698    
     93900  -104692.86      579.32365     -104113.54      192.94935      189.55128      1150.9614    
     94000  -104699.51      586.86998     -104112.64      192.9683       189.56298      1151.3531    
     94100  -104702.67      580.74455     -104121.92      192.98685      189.57465      1151.7447    
     94200  -104714.37      577.60988     -104136.76      193.00662      189.58436      1152.1363    
     94300  -104730.06      579.40864     -104150.65      193.02896      189.5941       1152.5279    
     94400  -104735.81      575.76288     -104160.04      193.05226      189.60456      1152.9195    
     94500  -104744.84      580.15732     -104164.68      193.07684      189.61339      1153.3111    
     94600  -104750.09      578.28059     -104171.81      193.10401      189.6217       1153.7028    
     94700  -104756.24      575.61299     -104180.63      193.13088      189.63197      1154.0944    
     94800  -104760.62      572.22974     -104188.39      193.15946      189.64189      1154.486     
     94900  -104768.66      578.74481     -104189.92      193.19023      189.65189      1154.8776    
     95000  -104771.58      578.4753      -104193.1       193.22096      189.66393      1155.2692    
     95100  -104763.08      568.41943     -104194.67      193.25151      189.67644      1155.6608    
     95200  -104772.14      579.90441     -104192.23      193.28432      189.6876       1156.0525    
     95300  -104764.43      576.34415     -104188.08      193.31621      189.69995      1156.4441    
     95400  -104758.57      577.44355     -104181.13      193.34699      189.71336      1156.8357    
     95500  -104759.79      580.30418     -104179.48      193.37948      189.72619      1157.2273    
     95600  -104752.87      572.47683     -104180.39      193.41137      189.7396       1157.6189    
     95700  -104749.96      576.38474     -104173.57      193.441        189.75428      1158.0105    
     95800  -104740.95      580.87792     -104160.07      193.46964      189.76997      1158.4022    
     95900  -104730.4       578.93581     -104151.47      193.49916      189.78509      1158.7938    
     96000  -104726.3       575.39847     -104150.9       193.52803      189.80188      1159.1854    
     96100  -104715.65      567.25824     -104148.39      193.55715      189.81928      1159.577     
     96200  -104711.09      574.241       -104136.85      193.58735      189.83573      1159.9686    
     96300  -104699.85      581.73778     -104118.11      193.61705      189.85188      1160.3602    
     96400  -104691.41      584.76789     -104106.64      193.64538      189.86925      1160.7519    
     96500  -104696.91      585.02301     -104111.88      193.67491      189.8846       1161.1435    
     96600  -104691.22      566.02402     -104125.2       193.70351      189.90003      1161.5351    
     96700  -104692.51      566.43184     -104126.07      193.73067      189.91735      1161.9267    
     96800  -104690.64      580.27227     -104110.37      193.75683      189.93354      1162.3183    
     96900  -104679         586.74598     -104092.25      193.78324      189.94817      1162.7099    
     97000  -104670.88      582.98811     -104087.89      193.80895      189.9616       1163.1016    
     97100  -104684.2       587.81758     -104096.39      193.82999      189.97704      1163.4932    
     97200  -104689.05      574.60405     -104114.45      193.85107      189.9901       1163.8848    
     97300  -104700.33      569.61259     -104130.72      193.87239      190.0004       1164.2764    
     97400  -104702.31      570.51613     -104131.79      193.89223      190.01183      1164.668     
     97500  -104696.39      575.40345     -104120.98      193.91043      190.02239      1165.0596    
     97600  -104693.57      584.90538     -104108.66      193.92897      190.0303       1165.4513    
     97700  -104687.52      578.31376     -104109.21      193.94811      190.03911      1165.8429    
     97800  -104708.94      581.38703     -104127.56      193.96291      190.05042      1166.2345    
     97900  -104720.5       570.38781     -104150.11      193.97786      190.06099      1166.6261    
     98000  -104730.13      568.57648     -104161.55      193.99443      190.07049      1167.0177    
     98100  -104733.91      576.5913      -104157.32      194.01048      190.07966      1167.4093    
     98200  -104729         583.3501      -104145.65      194.02431      190.09196      1167.801     
     98300  -104728.85      587.12061     -104141.73      194.03855      190.1039       1168.1926    
     98400  -104726.9       576.15524     -104150.75      194.05287      190.11472      1168.5842    
     98500  -104738.87      575.73029     -104163.14      194.06745      190.12808      1168.9758    
     98600  -104742.14      576.27805     -104165.86      194.08155      190.14155      1169.3674    
     98700  -104740.76      582.70822     -104158.05      194.09718      190.15319      1169.759     
     98800  -104739.28      585.33133     -104153.95      194.11342      190.16672      1170.1507    
     98900  -104740.45      579.18844     -104161.26      194.12953      190.18189      1170.5423    
     99000  -104746.76      573.174       -104173.59      194.14726      190.19603      1170.9339    
     99100  -104747.67      571.32109     -104176.34      194.16728      190.20945      1171.3255    
     99200  -104738.88      576.30576     -104162.57      194.18867      190.22372      1171.7171    
     99300  -104722.03      579.52347     -104142.51      194.21202      190.23755      1172.1087    
     99400  -104724.18      586.24108     -104137.94      194.23789      190.25157      1172.5004    
     99500  -104728.09      576.83924     -104151.25      194.26383      190.26742      1172.892     
     99600  -104729.43      563.69113     -104165.74      194.29222      190.28285      1173.2836    
     99700  -104731.15      563.42018     -104167.73      194.32499      190.29656      1173.6752    
     99800  -104731.07      574.2999      -104156.77      194.35976      190.30951      1174.0668    
     99900  -104728.09      583.41742     -104144.67      194.39517      190.32387      1174.4584    
    100000  -104725.32      583.07666     -104142.24      194.4342       190.33737      1174.8501    
Loop time of 35989 on 16 procs for 100000 steps with 14896 atoms

Performance: 0.240 ns/day, 99.969 hours/ns, 2.779 timesteps/s, 41.390 katom-step/s
47.7% CPU use with 16 MPI tasks x 1 OpenMP threads

MPI task timing breakdown:
Section |  min time  |  avg time  |  max time  |%varavg| %total
---------------------------------------------------------------
Pair    | 2177.7     | 2611.4     | 3359.9     | 525.0 |  7.26
Neigh   | 18.043     | 25.595     | 37.865     |  99.8 |  0.07
Comm    | 4650.1     | 5611.2     | 6205       | 512.2 | 15.59
Output  | 107.64     | 111.24     | 115.53     |  20.8 |  0.31
Modify  | 23921      | 24435      | 24937      | 168.7 | 67.89
Other   |            | 3195       |            |       |  8.88

Nlocal:            931 ave        2748 max          46 min
Histogram: 2 4 2 4 2 0 0 0 1 1
Nghost:        3051.62 ave        5265 max         793 min
Histogram: 1 0 1 3 2 5 1 0 2 1
Neighs:              0 ave           0 max           0 min
Histogram: 16 0 0 0 0 0 0 0 0 0

Total # of neighbors = 0
Ave neighs/atom = 0
Neighbor list builds = 1041
Dangerous builds = 0
Total wall time: 9:59:50
