LAMMPS (2 Aug 2023 - Update 3)
OMP_NUM_THREADS environment is not set. Defaulting to 1 thread. (src/comm.cpp:98)
  using 1 OpenMP thread(s) per MPI task
Reading data file ...
  orthogonal box = (-100 -100 -2.331251) to (100 100 38.891558)
  3 by 4 by 1 MPI processor grid
  reading atoms ...
  920 atoms
  read_data CPU = 0.006 seconds
Replication is creating a 1x1x11 = 11 times larger system...
  orthogonal box = (-100 -100 -2.331251) to (100 100 451.11965)
  2 by 2 by 3 MPI processor grid
  10120 atoms
  replicate CPU = 0.002 seconds
System init for write_data ...
WARNING: Communication cutoff is 0.0. No ghost atoms will be generated. Atoms may get lost. (src/comm_brick.cpp:210)
Reading airebo potential file CH.airebo with DATE: 2011-10-25
Reading airebo potential file CH.airebo with DATE: 2011-10-25
Neighbor list info ...
  update: every = 1 steps, delay = 0 steps, check = yes
  max neighbors/atom: 2000, page size: 100000
  master list distance cutoff = 13.2
  ghost atom cutoff = 13.2
  binsize = 6.6, bins = 31 31 69
  5 neighbor lists, perpetual/occasional/extra = 5 0 0
  (1) pair airebo, perpetual, skip from (4)
      attributes: full, newton on, ghost
      pair build: skip/ghost
      stencil: none
      bin: none
  (2) pair airebo, perpetual, skip from (4)
      attributes: full, newton on, ghost
      pair build: skip/ghost
      stencil: none
      bin: none
  (3) pair lj/cut, perpetual, skip from (5)
      attributes: half, newton on, cut 13
      pair build: skip
      stencil: none
      bin: none
  (4) neighbor class addition, perpetual
      attributes: full, newton on, ghost
      pair build: full/bin/ghost
      stencil: full/ghost/bin/3d
      bin: standard
  (5) neighbor class addition, perpetual
      attributes: half, newton on, cut 13
      pair build: half/bin/atomonly/newton
      stencil: half/bin/3d
      bin: standard
Setting up sd style minimization ...
  Unit style    : metal
  Current step  : 0
Per MPI rank memory allocation (min/avg/max) = 11.46 | 11.55 | 11.84 Mbytes
   Step          Temp          E_pair         E_mol          TotEng         Press     
         0   0             -73374.295      0             -73374.295      322.36972    
         4   0             -73567.57       0             -73567.57       67.774962    
Loop time of 0.14265 on 12 procs for 4 steps with 10120 atoms

99.7% CPU use with 12 MPI tasks x 1 OpenMP threads

Minimization stats:
  Stopping criterion = energy tolerance
  Energy initial, next-to-last, final = 
     -73374.2953789235  -73563.1208726393  -73567.5697605029
  Force two-norm initial, final = 144.70738 22.03329
  Force max component initial, final = 3.4211508 0.48894053
  Final line search alpha, max atom move = 0.14095332 0.068917792
  Iterations, force evaluations = 4 8

MPI task timing breakdown:
Section |  min time  |  avg time  |  max time  |%varavg| %total
---------------------------------------------------------------
Pair    | 0.12994    | 0.13532    | 0.14007    |   0.9 | 94.86
Neigh   | 0          | 0          | 0          |   0.0 |  0.00
Comm    | 0.0018279  | 0.006493   | 0.011795   |   4.2 |  4.55
Output  | 0          | 0          | 0          |   0.0 |  0.00
Modify  | 0          | 0          | 0          |   0.0 |  0.00
Other   |            | 0.0008353  |            |       |  0.59

Nlocal:        843.333 ave         909 max         780 min
Histogram: 3 0 0 0 5 1 0 0 0 3
Nghost:        3116.67 ave        3192 max        3040 min
Histogram: 1 2 0 0 2 4 0 0 1 2
Neighs:              0 ave           0 max           0 min
Histogram: 12 0 0 0 0 0 0 0 0 0

Total # of neighbors = 0
Ave neighs/atom = 0
Neighbor list builds = 0
Dangerous builds = 0
Setting up Verlet run ...
  Unit style    : metal
  Current step  : 4
  Time step     : 0.001
Per MPI rank memory allocation (min/avg/max) = 12.08 | 12.18 | 12.47 Mbytes
   Step          Temp          E_pair         E_mol          TotEng         Press          Volume    
         4   300           -73567.57       0             -73175.175      90.882428      18138036     
Loop time of 4.72882e-05 on 12 procs for 0 steps with 10120 atoms

79.7% CPU use with 12 MPI tasks x 1 OpenMP threads

MPI task timing breakdown:
Section |  min time  |  avg time  |  max time  |%varavg| %total
---------------------------------------------------------------
Pair    | 0          | 0          | 0          |   0.0 |  0.00
Neigh   | 0          | 0          | 0          |   0.0 |  0.00
Comm    | 0          | 0          | 0          |   0.0 |  0.00
Output  | 0          | 0          | 0          |   0.0 |  0.00
Modify  | 0          | 0          | 0          |   0.0 |  0.00
Other   |            | 4.729e-05  |            |       |100.00

Nlocal:        843.333 ave         846 max         841 min
Histogram: 1 0 2 0 4 0 3 0 1 1
Nghost:        3116.67 ave        3133 max        3101 min
Histogram: 4 0 0 0 2 2 0 0 0 4
Neighs:              0 ave           0 max           0 min
Histogram: 12 0 0 0 0 0 0 0 0 0

Total # of neighbors = 0
Ave neighs/atom = 0
Neighbor list builds = 0
Dangerous builds = 0
WARNING: New thermo_style command, previous thermo_modify settings will be lost (src/output.cpp:903)
WARNING: Dump 2 includes no atom IDs and is not sorted by ID. This may complicate post-processing tasks or visualization (src/dump.cpp:221)
Setting up Verlet run ...
  Unit style    : metal
  Current step  : 0
  Time step     : 0.001
Per MPI rank memory allocation (min/avg/max) = 13.58 | 13.68 | 13.97 Mbytes
   Step         PotEng         KinEng         TotEng           Lx             Ly             Lz      
         0  -73567.57       392.39502     -73175.175      200            200            453.4509     
       100  -73339.545      193.58324     -73145.961      200.00478      200.00602      453.67762    
       200  -73356.645      250.4964      -73106.149      200.00083      200.0054       453.90435    
       300  -73317.214      258.62676     -73058.588      200.00184      200.01208      454.13108    
       400  -73291.131      284.19883     -73006.932      199.99887      200.01472      454.3578     
       500  -73270.511      317.57872     -72952.932      199.99736      200.01732      454.58453    
       600  -73245.719      346.40414     -72899.314      200.00059      200.02097      454.81125    
       700  -73227.443      377.96323     -72849.479      199.99751      200.01673      455.03798    
       800  -73200.887      393.37306     -72807.514      200.00429      200.02203      455.2647     
       900  -73197.668      417.54673     -72780.121      199.99889      200.01701      455.49143    
      1000  -73183.926      409.13858     -72774.787      200.00215      200.02427      455.71815    
      1100  -73191.592      400.37627     -72791.215      199.99411      200.02286      455.94488    
      1200  -73197.649      388.27543     -72809.373      199.99421      200.02994      456.1716     
      1300  -73203.85       389.92135     -72813.929      199.98811      200.02823      456.39833    
      1400  -73188.148      387.57126     -72800.577      199.98968      200.03091      456.62506    
      1500  -73177.567      395.57901     -72781.988      199.98675      200.02717      456.85178    
      1600  -73164.509      391.51487     -72772.994      199.98823      200.02882      457.07851    
      1700  -73178.722      398.04404     -72780.678      199.98235      200.02561      457.30523    
      1800  -73174.141      380.14053     -72794          199.98181      200.03088      457.53196    
      1900  -73182.593      383.6737      -72798.92       199.97194      200.02815      457.75868    
      2000  -73170.178      379.86081     -72790.318      199.97231      200.03491      457.98541    
      2100  -73165.575      390.6821      -72774.893      199.96336      200.02847      458.21213    
      2200  -73159          394.87488     -72764.125      199.9669       200.03189      458.43886    
      2300  -73164.567      397.6479      -72766.919      199.9594       200.02442      458.66558    
      2400  -73165.735      388.46026     -72777.275      199.96069      200.02686      458.89231    
      2500  -73173.234      390.76571     -72782.468      199.95199      200.02295      459.11904    
      2600  -73167.465      390.01225     -72777.453      199.9484       200.02623      459.34576    
      2700  -73162.672      397.98006     -72764.692      199.94003      200.02471      459.57249    
      2800  -73156.092      402.04738     -72754.045      199.93585      200.02553      459.79921    
      2900  -73150.739      397.94499     -72752.794      199.9304       200.02202      460.02594    
      3000  -73150.799      392.67159     -72758.127      199.92748      200.01968      460.25266    
      3100  -73154.816      392.75952     -72762.056      199.92264      200.01517      460.47939    
      3200  -73152.568      394.57939     -72757.988      199.91809      200.0132       460.70611    
      3300  -73142.485      395.51825     -72746.967      199.91134      200.01005      460.93284    
      3400  -73132.253      394.84511     -72737.408      199.90487      200.0094       461.15956    
      3500  -73129.578      396.13417     -72733.444      199.89652      200.00666      461.38629    
      3600  -73129.531      393.574       -72735.957      199.88964      200.00456      461.61302    
      3700  -73119.332      380.32516     -72739.007      199.88317      200.00053      461.83974    
      3800  -73126.344      388.8647      -72737.479      199.87657      199.99519      462.06647    
      3900  -73115.731      386.19062     -72729.54       199.87126      199.99118      462.29319    
      4000  -73110.308      390.62533     -72719.683      199.86353      199.98555      462.51992    
      4100  -73105.328      391.46974     -72713.858      199.85606      199.98227      462.74664    
      4200  -73102.211      388.36577     -72713.845      199.84692      199.9782       462.97337    
      4300  -73104.832      389.33633     -72715.495      199.83852      199.97462      463.20009    
      4400  -73105.79       392.02665     -72713.763      199.82937      199.97001      463.42682    
      4500  -73095.204      389.19379     -72706.01       199.82154      199.96499      463.65354    
      4600  -73088.808      392.79108     -72696.017      199.81308      199.9592       463.88027    
      4700  -73084.475      395.78393     -72688.691      199.80493      199.95368      464.107      
      4800  -73086.286      399.90991     -72686.377      199.79596      199.94751      464.33372    
      4900  -73081.056      393.15544     -72687.9        199.78666      199.94193      464.56045    
      5000  -73075.411      387.95397     -72687.458      199.77651      199.93652      464.78717    
      5100  -73073.439      392.01244     -72681.427      199.7656       199.93078      465.0139     
      5200  -73066.819      396.21222     -72670.606      199.75599      199.92491      465.24062    
      5300  -73057.261      397.26773     -72659.993      199.74518      199.91723      465.46735    
      5400  -73047.661      393.07684     -72654.584      199.73583      199.91023      465.69407    
      5500  -73046.602      391.6978      -72654.904      199.72421      199.90168      465.9208     
      5600  -73044.026      388.3221      -72655.704      199.71333      199.89501      466.14752    
      5700  -73041.829      389.79412     -72652.035      199.69991      199.88702      466.37425    
      5800  -73031.318      388.78677     -72642.531      199.6883       199.88037      466.60098    
      5900  -73025.158      393.78877     -72631.369      199.67508      199.87044      466.8277     
      6000  -73021.313      397.79423     -72623.519      199.66456      199.86135      467.05443    
      6100  -73016.972      394.74996     -72622.222      199.65164      199.85035      467.28115    
      6200  -73013.444      390.11811     -72623.326      199.63864      199.84198      467.50788    
      6300  -73009.575      388.58198     -72620.993      199.6229       199.83253      467.7346     
      6400  -72998.131      385.32811     -72612.803      199.60904      199.82434      467.96133    
      6500  -72996.97       396.19862     -72600.771      199.59406      199.81312      468.18805    
      6600  -72988.62       397.75153     -72590.868      199.58152      199.80225      468.41478    
      6700  -72978.114      391.05715     -72587.057      199.5673       199.78957      468.6415     
      6800  -72975.42       388.6163      -72586.804      199.55263      199.77838      468.86823    
      6900  -72974.448      390.08025     -72584.368      199.53626      199.76781      469.09496    
      7000  -72967.593      391.68695     -72575.906      199.51902      199.75726      469.32168    
      7100  -72958.45       394.6101      -72563.84       199.50221      199.746        469.54841    
      7200  -72945.358      391.85067     -72553.507      199.48582      199.73323      469.77513    
      7300  -72946.332      397.24298     -72549.089      199.46954      199.71961      470.00186    
      7400  -72945.005      395.92523     -72549.08       199.4521       199.70561      470.22858    
      7500  -72939.076      391.57458     -72547.501      199.43511      199.69269      470.45531    
      7600  -72935.559      395.39266     -72540.166      199.41569      199.6776       470.68203    
      7700  -72921.48       393.10218     -72528.377      199.39789      199.66514      470.90876    
      7800  -72913.984      397.82973     -72516.154      199.3771       199.6501       471.13548    
      7900  -72908.467      399.1635      -72509.304      199.35823      199.6368       471.36221    
      8000  -72898.996      391.86575     -72507.13       199.33723      199.62056      471.58893    
      8100  -72892.001      386.67469     -72505.327      199.31861      199.60595      471.81566    
      8200  -72887.366      388.57682     -72498.789      199.297        199.58832      472.04239    
      8300  -72875.28       387.65885     -72487.622      199.27748      199.57354      472.26911    
      8400  -72868.703      394.0024      -72474.7        199.25457      199.55638      472.49584    
      8500  -72857.314      390.94942     -72466.364      199.23319      199.54074      472.72256    
      8600  -72856.126      393.3083      -72462.818      199.2099       199.52282      472.94929    
      8700  -72848.472      388.71776     -72459.754      199.18805      199.50638      473.17601    
      8800  -72846.657      393.11059     -72453.546      199.1631       199.48724      473.40274    
      8900  -72835.4        391.98567     -72443.414      199.14002      199.47042      473.62946    
      9000  -72826.303      395.40489     -72430.898      199.11408      199.45109      473.85619    
      9100  -72814.528      394.24056     -72420.287      199.0892       199.43283      474.08291    
      9200  -72806.566      391.3434      -72415.222      199.06282      199.4127       474.30964    
      9300  -72802.189      390.01478     -72412.174      199.0374       199.39247      474.53637    
      9400  -72797.991      390.76539     -72407.226      199.01043      199.37081      474.76309    
      9500  -72789.249      391.25018     -72397.998      198.98372      199.34978      474.98982    
      9600  -72778.9        394.04782     -72384.852      198.95524      199.32803      475.21654    
      9700  -72771.347      398.01806     -72373.328      198.92656      199.30642      475.44327    
      9800  -72757.673      390.88164     -72366.791      198.89707      199.28408      475.66999    
      9900  -72754.943      391.93313     -72363.01       198.86725      199.26088      475.89672    
     10000  -72749.584      391.00864     -72358.575      198.83767      199.23765      476.12344    
     10100  -72738.473      389.03199     -72349.441      198.80627      199.21358      476.35017    
     10200  -72731.409      395.76997     -72335.64       198.7752       199.19065      476.57689    
     10300  -72723.345      400.0789      -72323.266      198.74271      199.16527      476.80362    
     10400  -72709.606      393.73573     -72315.87       198.71192      199.14025      477.03035    
     10500  -72706.413      390.48812     -72315.925      198.67983      199.11211      477.25707    
     10600  -72697.066      388.49473     -72308.571      198.64885      199.08552      477.4838     
     10700  -72687.262      392.06817     -72295.194      198.61368      199.05807      477.71052    
     10800  -72675.161      392.7753      -72282.386      198.57885      199.03338      477.93725    
     10900  -72671.157      398.89655     -72272.261      198.54068      199.00657      478.16397    
     11000  -72657.276      393.19702     -72264.079      198.50485      198.98063      478.3907     
     11100  -72649.146      389.03802     -72260.108      198.46744      198.95054      478.61742    
     11200  -72644.872      387.28689     -72257.586      198.43276      198.92131      478.84415    
     11300  -72634.052      389.28831     -72244.763      198.39561      198.88905      479.07087    
     11400  -72622.496      393.48765     -72229.008      198.35979      198.85914      479.2976     
     11500  -72611.197      393.96769     -72217.229      198.32051      198.82732      479.52433    
     11600  -72598.839      391.27914     -72207.56       198.28203      198.79746      479.75105    
     11700  -72593.027      392.35497     -72200.672      198.24093      198.76589      479.97778    
     11800  -72583.039      385.29191     -72197.747      198.20128      198.73569      480.2045     
     11900  -72574.559      386.28109     -72188.278      198.15977      198.70258      480.43123    
     12000  -72564.786      394.37237     -72170.413      198.11975      198.67092      480.65795    
     12100  -72548.613      390.57539     -72158.037      198.07784      198.63662      480.88468    
     12200  -72540.695      392.10831     -72148.587      198.03785      198.60328      481.1114     
     12300  -72532.676      392.49428     -72140.182      197.99513      198.56749      481.33813    
     12400  -72522.919      388.39504     -72134.524      197.95399      198.53369      481.56485    
     12500  -72513.005      385.14213     -72127.863      197.91064      198.49726      481.79158    
     12600  -72506.894      393.35097     -72113.543      197.86818      198.46269      482.01831    
     12700  -72488.213      392.49731     -72095.716      197.82291      198.42748      482.24503    
     12800  -72479.523      394.3045      -72085.219      197.7785       198.39352      482.47176    
     12900  -72472.331      393.47421     -72078.856      197.73269      198.35735      482.69848    
     13000  -72460.674      387.4497      -72073.224      197.68904      198.32158      482.92521    
     13100  -72454.594      391.1211      -72063.473      197.64537      198.28325      483.15193    
     13200  -72438.488      392.99126     -72045.497      197.60259      198.24529      483.37866    
     13300  -72426.061      395.6788      -72030.383      197.55835      198.20784      483.60538    
     13400  -72413.777      391.78742     -72021.989      197.51262      198.17217      483.83211    
     13500  -72406.688      389.21047     -72017.478      197.46587      198.13717      484.05883    
     13600  -72401.31       393.06227     -72008.247      197.41976      198.1018       484.28556    
     13700  -72385.378      390.36378     -71995.014      197.37481      198.06476      484.51229    
     13800  -72374.378      397.54113     -71976.837      197.33185      198.02687      484.73901    
     13900  -72358.606      398.60435     -71960.002      197.28847      197.98851      484.96574    
     14000  -72345.679      393.89967     -71951.779      197.24396      197.95159      485.19246    
     14100  -72338.585      392.58587     -71945.999      197.1981       197.91576      485.41919    
     14200  -72330.46       392.52354     -71937.936      197.15207      197.88079      485.64591    
     14300  -72317.757      390.48052     -71927.276      197.10628      197.84501      485.87264    
     14400  -72304.103      391.23723     -71912.866      197.06229      197.80839      486.09936    
     14500  -72289.903      395.07015     -71894.833      197.01927      197.77077      486.32609    
     14600  -72278.878      394.83348     -71884.045      196.97641      197.7339       486.55281    
     14700  -72271.738      392.47594     -71879.263      196.93246      197.69754      486.77954    
     14800  -72263.405      392.28161     -71871.123      196.88876      197.66247      487.00627    
     14900  -72250.281      392.13654     -71858.145      196.84524      197.62764      487.23299    
     15000  -72235.095      391.33901     -71843.756      196.802        197.59311      487.45972    
     15100  -72220.01       392.60711     -71827.403      196.75917      197.55938      487.68644    
     15200  -72201.41       392.97456     -71808.435      196.71686      197.52532      487.91317    
     15300  -72194.855      396.52023     -71798.335      196.67593      197.49149      488.13989    
     15400  -72186.434      390.78809     -71795.646      196.63592      197.45593      488.36662    
     15500  -72178.802      393.27072     -71785.531      196.5975       197.42135      488.59334    
     15600  -72163.688      391.58917     -71772.099      196.55745      197.38768      488.82007    
     15700  -72150.932      394.76267     -71756.17       196.5171       197.35669      489.04679    
     15800  -72136.138      396.00559     -71740.132      196.47575      197.32582      489.27352    
     15900  -72122.032      393.23459     -71728.798      196.43655      197.2955       489.50025    
     16000  -72119.598      394.43375     -71725.164      196.39812      197.26341      489.72697    
     16100  -72102.038      387.328       -71714.71       196.36227      197.23147      489.9537     
     16200  -72088.749      388.86845     -71699.88       196.32645      197.19882      490.18042    
     16300  -72073.198      392.48635     -71680.711      196.29117      197.16859      490.40715    
     16400  -72065.175      398.8788      -71666.296      196.25421      197.13908      490.63387    
     16500  -72050.045      393.62743     -71656.417      196.21834      197.11126      490.8606     
     16600  -72039.104      393.46879     -71645.635      196.18284      197.08275      491.08732    
     16700  -72025.524      390.39444     -71635.129      196.14883      197.05489      491.31405    
     16800  -72015.195      391.84892     -71623.346      196.11555      197.02626      491.54077    
     16900  -72001.646      394.67217     -71606.974      196.08357      196.99835      491.7675     
     17000  -71979.327      391.51851     -71587.808      196.05157      196.97052      491.99423    
     17100  -71967.857      392.94019     -71574.917      196.01998      196.94383      492.22095    
     17200  -71959.025      389.50362     -71569.521      195.98838      196.91739      492.44768    
     17300  -71947.996      388.7167      -71559.28       195.95729      196.89181      492.6744     
     17400  -71933.281      389.56092     -71543.72       195.92621      196.86648      492.90113    
     17500  -71923.249      396.57005     -71526.679      195.89632      196.84147      493.12785    
     17600  -71910.024      398.43289     -71511.591      195.86663      196.81623      493.35458    
     17700  -71890.285      389.02235     -71501.263      195.83869      196.79148      493.5813     
     17800  -71883.174      388.00331     -71495.171      195.81098      196.76581      493.80803    
     17900  -71870.093      388.18402     -71481.909      195.78437      196.74186      494.03475    
     18000  -71855.675      394.05781     -71461.617      195.75626      196.71839      494.26148    
     18100  -71840.362      395.00215     -71445.36       195.72891      196.69733      494.48821    
     18200  -71821.869      389.18084     -71432.688      195.7011       196.67574      494.71493    
     18300  -71814.846      392.87435     -71421.972      195.67548      196.65456      494.94166    
     18400  -71802.691      386.96174     -71415.729      195.65106      196.6315       495.16838    
     18500  -71791.096      386.46527     -71404.63       195.62833      196.6092       495.39511    
     18600  -71772.399      390.20938     -71382.189      195.60495      196.58725      495.62183    
     18700  -71761.196      396.1132      -71365.083      195.58128      196.56698      495.84856    
     18800  -71740.188      392.31245     -71347.875      195.55672      196.5477       496.07528    
     18900  -71725.26       393.27966     -71331.98       195.53239      196.52929      496.30201    
     19000  -71715.707      395.31579     -71320.392      195.50864      196.51069      496.52873    
     19100  -71702.306      389.60509     -71312.701      195.48609      196.49148      496.75546    
     19200  -71689.488      388.83517     -71300.653      195.46508      196.47147      496.98219    
     19300  -71672.406      392.20898     -71280.197      195.44497      196.45134      497.20891    
     19400  -71660.869      400.5722      -71260.297      195.42487      196.43169      497.43564    
     19500  -71639.246      391.52887     -71247.717      195.40398      196.41355      497.66236    
     19600  -71626.628      389.27648     -71237.351      195.38193      196.39696      497.88909    
     19700  -71614.901      388.68196     -71226.219      195.35992      196.38093      498.11581    
     19800  -71602.479      390.36867     -71212.111      195.33939      196.36451      498.34254    
     19900  -71582.275      392.90734     -71189.368      195.32008      196.34717      498.56926    
     20000  -71567.935      396.26396     -71171.671      195.30153      196.32933      498.79599    
     20100  -71555.218      394.43066     -71160.788      195.28318      196.31188      499.02271    
     20200  -71542.101      391.4356      -71150.665      195.26444      196.29512      499.24944    
     20300  -71530.807      393.9537      -71136.854      195.24522      196.27925      499.47617    
     20400  -71507.008      389.44405     -71117.564      195.22597      196.26368      499.70289    
     20500  -71494.492      400.74121     -71093.751      195.20726      196.2485       499.92962    
     20600  -71476.498      394.6447      -71081.854      195.18835      196.23263      500.15634    
     20700  -71465.794      392.06101     -71073.733      195.17048      196.21729      500.38307    
     20800  -71452.826      391.18022     -71061.645      195.15242      196.20124      500.60979    
     20900  -71434.446      387.6622      -71046.784      195.13567      196.18528      500.83652    
     21000  -71418.122      392.39178     -71025.73       195.1189       196.16922      501.06324    
     21100  -71403.116      398.26163     -71004.855      195.10201      196.15419      501.28997    
     21200  -71388.657      396.46604     -70992.191      195.08384      196.13982      501.51669    
     21300  -71375.091      392.94118     -70982.15       195.06584      196.12668      501.74342    
     21400  -71356.542      388.98759     -70967.554      195.04765      196.11262      501.97015    
     21500  -71345.318      393.72351     -70951.594      195.03132      196.09796      502.19687    
     21600  -71320.291      387.0421      -70933.249      195.01604      196.08212      502.4236     
     21700  -71305.352      393.83635     -70911.516      195.00121      196.06553      502.65032    
     21800  -71288.644      399.99727     -70888.647      194.98539      196.05042      502.87705    
     21900  -71272.84       396.11591     -70876.724      194.96718      196.03691      503.10377    
     22000  -71258.207      392.04825     -70866.159      194.94848      196.02455      503.3305     
     22100  -71251.306      395.5802      -70855.726      194.93027      196.01051      503.55722    
     22200  -71234.198      391.15423     -70843.044      194.91461      195.99541      503.78395    
     22300  -71223.343      397.05486     -70826.288      194.89947      195.9782       504.01067    
     22400  -71196.337      392.68233     -70803.655      194.88509      195.96173      504.2374     
     22500  -71179.6        395.46189     -70784.138      194.86861      195.94645      504.46413    
     22600  -71166.461      393.43941     -70773.021      194.85047      195.93315      504.69085    
     22700  -71150.685      389.85619     -70760.828      194.83219      195.92056      504.91758    
     22800  -71137.158      391.98004     -70745.178      194.81545      195.90571      505.1443     
     22900  -71119.679      390.99789     -70728.681      194.80107      195.8897       505.37103    
     23000  -71107.412      395.83717     -70711.574      194.78577      195.87331      505.59775    
     23100  -71080.892      389.6147      -70691.278      194.77014      195.85889      505.82448    
     23200  -71071.151      397.94444     -70673.206      194.75272      195.84438      506.0512     
     23300  -71053.644      392.82526     -70660.819      194.73635      195.8309       506.27793    
     23400  -71041.213      390.01289     -70651.2        194.71898      195.81552      506.50465    
     23500  -71026.474      390.93834     -70635.536      194.70337      195.8012       506.73138    
     23600  -71003.789      388.24223     -70615.547      194.68634      195.7855       506.95811    
     23700  -70991.734      394.6567      -70597.077      194.67043      195.77162      507.18483    
     23800  -70973.06       393.03564     -70580.025      194.65271      195.75627      507.41156    
     23900  -70955.546      392.5983      -70562.947      194.63708      195.74154      507.63828    
     24000  -70940.618      394.7852      -70545.832      194.6205       195.72507      507.86501    
     24100  -70926.264      395.8181      -70530.446      194.60511      195.71034      508.09173    
     24200  -70907.739      389.67345     -70518.065      194.58763      195.69461      508.31846    
     24300  -70894.954      390.78907     -70504.165      194.57083      195.6812       508.54518    
     24400  -70875.744      393.18093     -70482.563      194.55244      195.66638      508.77191    
     24500  -70855.549      395.96233     -70459.587      194.5363       195.65218      508.99863    
     24600  -70834.879      391.54716     -70443.331      194.51945      195.63562      509.22536    
     24700  -70822.722      393.13583     -70429.587      194.50432      195.62014      509.45209    
     24800  -70803.417      385.92658     -70417.491      194.48674      195.60327      509.67881    
     24900  -70794.992      387.45189     -70407.54       194.46977      195.58978      509.90554    
     25000  -70775.641      388.97757     -70386.663      194.45016      195.57429      510.13226    
     25100  -70753.268      391.29275     -70361.975      194.43416      195.55995      510.35899    
     25200  -70731.962      390.42521     -70341.537      194.41716      195.54156      510.58571    
     25300  -70714.195      390.97525     -70323.22       194.40281      195.52489      510.81244    
     25400  -70699.376      391.33871     -70308.037      194.3845       195.5077       511.03916    
     25500  -70688.944      391.94281     -70297.001      194.3662       195.49452      511.26589    
     25600  -70672.282      390.70912     -70281.573      194.34582      195.47998      511.49261    
     25700  -70648.708      392.03378     -70256.674      194.32839      195.46528      511.71934    
     25800  -70628.056      393.2704      -70234.786      194.3113       195.44791      511.94606    
     25900  -70614.751      395.30515     -70219.446      194.29524      195.43109      512.17279    
     26000  -70598.502      392.40131     -70206.101      194.27724      195.41456      512.39952    
     26100  -70580.783      389.77927     -70191.003      194.25862      195.39938      512.62624    
     26200  -70561.195      391.19664     -70169.998      194.23957      195.38352      512.85297    
     26300  -70541.043      395.94833     -70145.095      194.22192      195.36699      513.07969    
     26400  -70520.433      393.60426     -70126.829      194.20433      195.34907      513.30642    
     26500  -70506.855      393.47774     -70113.378      194.18615      195.33154      513.53314    
     26600  -70492.197      389.94171     -70102.255      194.16697      195.31483      513.75987    
     26700  -70477.214      392.41837     -70084.796      194.14735      195.29781      513.98659    
     26800  -70459.489      394.6257      -70064.864      194.12842      195.28067      514.21332    
     26900  -70439.705      394.43448     -70045.27       194.10879      195.26259      514.44004    
     27000  -70417.545      390.17658     -70027.369      194.09018      195.2455       514.66677    
     27100  -70401.829      393.65336     -70008.175      194.07043      195.22723      514.8935     
     27200  -70381.48       394.51214     -69986.968      194.05176      195.2096       515.12022    
     27300  -70358.037      390.64471     -69967.393      194.03274      195.19075      515.34695    
     27400  -70346.809      393.60817     -69953.201      194.01411      195.17214      515.57367    
     27500  -70335.022      393.39909     -69941.623      193.99456      195.15334      515.8004     
     27600  -70311.468      387.1556      -69924.312      193.97546      195.13494      516.02712    
     27700  -70295.544      394.14739     -69901.396      193.95581      195.11628      516.25385    
     27800  -70270.718      390.12737     -69880.59       193.93558      195.0978       516.48057    
     27900  -70254.571      392.25172     -69862.32       193.91513      195.07986      516.7073     
     28000  -70234.789      390.56552     -69844.223      193.89382      195.06132      516.93402    
     28100  -70219.009      393.0209      -69825.988      193.87343      195.04331      517.16075    
     28200  -70200.869      390.97543     -69809.893      193.85228      195.02342      517.38748    
     28300  -70183.092      389.39144     -69793.701      193.8332       195.00451      517.6142     
     28400  -70168.042      393.58483     -69774.457      193.81266      194.98322      517.84093    
     28500  -70145.243      394.66038     -69750.583      193.79364      194.96448      518.06765    
     28600  -70119.785      391.19849     -69728.586      193.77154      194.94414      518.29438    
     28700  -70109.44       396.11371     -69713.326      193.75155      194.9265       518.5211     
     28800  -70089.144      385.73193     -69703.412      193.72913      194.90603      518.74783    
     28900  -70073.734      389.18573     -69684.548      193.70926      194.88717      518.97455    
     29000  -70056.585      394.57603     -69662.009      193.68751      194.86643      519.20128    
     29100  -70029.929      391.27155     -69638.658      193.66719      194.84734      519.428      
     29200  -70012.9        394.40575     -69618.494      193.64452      194.82719      519.65473    
     29300  -69995.279      393.35584     -69601.923      193.62275      194.80825      519.88146    
     29400  -69982.75       389.89016     -69592.859      193.60007      194.78802      520.10818    
     29500  -69966.193      391.55639     -69574.636      193.57841      194.76801      520.33491    
     29600  -69941.294      390.99425     -69550.3        193.55692      194.74678      520.56163    
     29700  -69921.596      393.04958     -69528.546      193.53621      194.72517      520.78836    
     29800  -69902.464      394.20833     -69508.256      193.51539      194.70335      521.01508    
     29900  -69883.234      394.10129     -69489.133      193.49336      194.68221      521.24181    
     30000  -69867.153      395.05559     -69472.098      193.47062      194.663        521.46853    
     30100  -69846.827      390.08631     -69456.741      193.44618      194.64331      521.69526    
     30200  -69828.038      390.16833     -69437.869      193.42415      194.62397      521.92198    
     30300  -69800.837      388.40145     -69412.436      193.40133      194.60192      522.14871    
     30400  -69786.651      397.18386     -69389.467      193.38041      194.58175      522.37544    
     30500  -69763.831      393.03448     -69370.797      193.35651      194.55975      522.60216    
     30600  -69747.078      392.76565     -69354.313      193.33421      194.54056      522.82889    
     30700  -69732.384      389.42009     -69342.964      193.30939      194.51824      523.05561    
     30800  -69715.21       387.85259     -69327.357      193.28819      194.4974       523.28234    
     30900  -69691.492      389.21962     -69302.273      193.26503      194.47321      523.50906    
     31000  -69672.886      393.86024     -69279.026      193.24374      194.45155      523.73579    
     31100  -69651.867      394.28988     -69257.577      193.21926      194.4284       523.96251    
     31200  -69633.514      396.63254     -69236.882      193.19585      194.40808      524.18924    
     31300  -69612.498      394.43859     -69218.059      193.17045      194.38598      524.41596    
     31400  -69593.562      390.49095     -69203.072      193.14671      194.36501      524.64269    
     31500  -69577.52       389.54716     -69187.973      193.12247      194.34167      524.86942    
     31600  -69558.35       391.11886     -69167.231      193.10012      194.31887      525.09614    
     31700  -69527.811      388.04345     -69139.767      193.076        194.29574      525.32287    
     31800  -69511.012      391.90616     -69119.106      193.05192      194.27428      525.54959    
     31900  -69493.932      392.42215     -69101.51       193.02704      194.25171      525.77632    
     32000  -69478.087      390.77939     -69087.307      193.00384      194.22828      526.00304    
     32100  -69459.693      386.64831     -69073.045      192.98148      194.2034       526.22977    
     32200  -69440.947      386.01497     -69054.932      192.95905      194.17897      526.45649    
     32300  -69422.587      395.453       -69027.134      192.93438      194.1556       526.68322    
     32400  -69397.2        395.01783     -69002.182      192.90912      194.13452      526.90994    
     32500  -69371.29       390.22063     -68981.069      192.8824       194.11202      527.13667    
     32600  -69356.566      391.41438     -68965.152      192.85817      194.09006      527.3634     
     32700  -69338.346      386.59097     -68951.755      192.83312      194.0658       527.59012    
     32800  -69324.774      393.35801     -68931.416      192.80959      194.04322      527.81685    
     32900  -69298.06       390.28987     -68907.77       192.78434      194.01916      528.04357    
     33000  -69275.735      389.48152     -68886.254      192.76094      193.99664      528.2703     
     33100  -69263.589      397.68417     -68865.905      192.73631      193.97166      528.49702    
     33200  -69237.621      392.36425     -68845.257      192.7138       193.94828      528.72375    
     33300  -69216.195      394.6626      -68821.532      192.68884      193.92354      528.95047    
     33400  -69187.59       391.22986     -68796.36       192.66474      193.90144      529.1772     
     33500  -69173.573      395.33281     -68778.24       192.6383       193.87802      529.40392    
     33600  -69156.482      388.80482     -68767.677      192.61367      193.8554       529.63065    
     33700  -69137.848      389.28191     -68748.566      192.58853      193.83104      529.85738    
     33800  -69119.297      394.29653     -68725          192.56409      193.80768      530.0841     
     33900  -69095.974      395.24612     -68700.728      192.53879      193.78399      530.31083    
     34000  -69074.669      394.85862     -68679.811      192.51319      193.76111      530.53755    
     34100  -69054.459      385.92419     -68668.535      192.48736      193.73866      530.76428    
     34200  -69042.354      390.1018      -68652.252      192.46177      193.71523      530.991      
     34300  -69013.849      385.60582     -68628.244      192.43829      193.6914       531.21773    
     34400  -68998.401      395.95809     -68602.443      192.4148       193.66578      531.44445    
     34500  -68971.254      390.8303      -68580.424      192.39208      193.64191      531.67118    
     34600  -68953.179      392.60001     -68560.579      192.36685      193.61758      531.8979     
     34700  -68936.942      394.21422     -68542.727      192.34207      193.59577      532.12463    
     34800  -68917.511      387.65422     -68529.857      192.31584      193.57251      532.35136    
     34900  -68896.953      387.16047     -68509.793      192.29142      193.54996      532.57808    
     35000  -68875.889      393.95434     -68481.935      192.26598      193.52628      532.80481    
     35100  -68853.998      395.6984      -68458.3        192.24073      193.50403      533.03153    
     35200  -68828.722      392.28796     -68436.434      192.2147       193.48105      533.25826    
     35300  -68806.75       390.58178     -68416.168      192.18969      193.45755      533.48498    
     35400  -68792.778      394.60551     -68398.173      192.16568      193.43319      533.71171    
     35500  -68770.206      387.38682     -68382.819      192.14147      193.40802      533.93843    
     35600  -68755.252      391.02344     -68364.228      192.11744      193.38434      534.16516    
     35700  -68725.667      388.7407      -68336.926      192.09212      193.36046      534.39188    
     35800  -68707.764      395.49652     -68312.267      192.06743      193.33753      534.61861    
     35900  -68685.612      392.52129     -68293.091      192.04276      193.31296      534.84534    
     36000  -68669.062      393.27499     -68275.787      192.01953      193.28888      535.07206    
     36100  -68649.881      389.78628     -68260.095      191.99504      193.26441      535.29879    
     36200  -68628.841      384.96058     -68243.88       191.97019      193.24177      535.52551    
     36300  -68605.836      388.31124     -68217.524      191.94403      193.2193       535.75224    
     36400  -68580.547      390.02344     -68190.523      191.91851      193.19719      535.97896    
     36500  -68559.703      392.39973     -68167.303      191.89347      193.17452      536.20569    
     36600  -68540.91       395.13559     -68145.774      191.86922      193.14977      536.43241    
     36700  -68522.396      394.0692      -68128.327      191.84716      193.12548      536.65914    
     36800  -68504.785      390.00378     -68114.782      191.82297      193.10002      536.88586    
     36900  -68485.258      391.25383     -68094.005      191.80001      193.0773       537.11259    
     37000  -68457.738      390.20558     -68067.532      191.77517      193.05274      537.33932    
     37100  -68437.38       393.73351     -68043.647      191.75347      193.03001      537.56604    
     37200  -68417.681      394.10762     -68023.574      191.72861      193.00506      537.79277    
     37300  -68394.045      389.48728     -68004.558      191.70552      192.98435      538.01949    
     37400  -68379.378      394.68235     -67984.696      191.67894      192.96135      538.24622    
     37500  -68353.477      391.47312     -67962.004      191.65591      192.94101      538.47294    
     37600  -68331.021      395.87284     -67935.149      191.63079      192.91726      538.69967    
     37700  -68305.913      393.18421     -67912.729      191.60888      192.89536      538.92639    
     37800  -68289.27       391.73906     -67897.531      191.58455      192.87128      539.15312    
     37900  -68273.026      390.95318     -67882.073      191.56171      192.85014      539.37984    
     38000  -68245.485      386.01128     -67859.474      191.53659      192.82745      539.60657    
     38100  -68230.696      395.7003      -67834.995      191.51459      192.80557      539.8333     
     38200  -68205.911      394.5822      -67811.328      191.49217      192.78015      540.06002    
     38300  -68182.872      393.00428     -67789.868      191.47223      192.75706      540.28675    
     38400  -68166.149      393.99628     -67772.152      191.4485       192.73344      540.51347    
     38500  -68144.448      384.09014     -67760.358      191.42541      192.71416      540.7402     
     38600  -68125.029      388.81216     -67736.217      191.40028      192.69239      540.96692    
     38700  -68099.384      391.01526     -67708.369      191.37935      192.67195      541.19365    
     38800  -68078.735      395.26404     -67683.471      191.35648      192.64809      541.42037    
     38900  -68054.699      393.7362      -67660.963      191.33568      192.62764      541.6471     
     39000  -68034.854      395.40188     -67639.452      191.31095      192.60634      541.87382    
     39100  -68012.283      392.25823     -67620.025      191.2875       192.58825      542.10055    
     39200  -67994.383      391.69556     -67602.688      191.26299      192.56758      542.32728    
     39300  -67971.276      389.67661     -67581.6        191.24215      192.54654      542.554      
     39400  -67950.652      396.80568     -67553.846      191.22188      192.52254      542.78073    
     39500  -67925.04       395.93051     -67529.11       191.20238      192.49902      543.00745    
     39600  -67903.036      393.42287     -67509.613      191.18132      192.47726      543.23418    
     39700  -67886.022      393.81919     -67492.203      191.15761      192.45649      543.4609     
     39800  -67860.804      388.3184      -67472.485      191.13535      192.43787      543.68763    
     39900  -67842.224      391.25446     -67450.969      191.11171      192.41593      543.91435    
     40000  -67820.109      391.85026     -67428.259      191.09243      192.39628      544.14108    
     40100  -67797.638      393.36026     -67404.278      191.06953      192.37303      544.3678     
     40200  -67771.73       393.69891     -67378.031      191.04952      192.35484      544.59453    
     40300  -67751.116      396.24647     -67354.869      191.02459      192.33388      544.82126    
     40400  -67737.322      396.23639     -67341.085      191.00421      192.3162       545.04798    
     40500  -67715.969      392.34398     -67323.625      190.98171      192.29323      545.27471    
     40600  -67691.293      390.33763     -67300.956      190.96359      192.27329      545.50143    
     40700  -67667.137      393.07231     -67274.065      190.94171      192.25086      545.72816    
     40800  -67647.9        397.64987     -67250.25       190.92218      192.23171      545.95488    
     40900  -67623.32       392.58783     -67230.732      190.90086      192.20976      546.18161    
     41000  -67608.094      390.34468     -67217.749      190.8821       192.18898      546.40833    
     41100  -67588.69       387.15739     -67201.532      190.86213      192.16697      546.63506    
     41200  -67562.991      389.20907     -67173.782      190.8424       192.1472       546.86178    
     41300  -67537.258      391.54421     -67145.714      190.82078      192.12801      547.08851    
     41400  -67521.07       399.10382     -67121.966      190.79918      192.11008      547.31524    
     41500  -67497.047      393.97377     -67103.073      190.77755      192.09162      547.54196    
     41600  -67478.564      390.97437     -67087.589      190.75704      192.07284      547.76869    
     41700  -67457.975      390.78792     -67067.187      190.73756      192.05312      547.99541    
     41800  -67428.124      391.86638     -67036.258      190.71754      192.0338       548.22214    
     41900  -67406.672      395.33849     -67011.333      190.69738      192.0156       548.44886    
     42000  -67386.589      394.44295     -66992.146      190.67725      191.9963       548.67559    
     42100  -67361.27       387.1347      -66974.135      190.65917      191.97632      548.90231    
     42200  -67342.933      388.46391     -66954.469      190.64069      191.9553       549.12904    
     42300  -67318.447      390.26088     -66928.186      190.62268      191.93562      549.35576    
     42400  -67291.539      391.46412     -66900.075      190.60271      191.91617      549.58249    
     42500  -67274.956      394.97592     -66879.98       190.58324      191.89888      549.80922    
     42600  -67255.607      391.95171     -66863.655      190.56264      191.88         550.03594    
     42700  -67233.51       389.16885     -66844.341      190.54443      191.86236      550.26267    
     42800  -67213.878      392.36992     -66821.508      190.5253       191.84247      550.48939    
     42900  -67188.891      390.99425     -66797.897      190.50685      191.82516      550.71612    
     43000  -67171.182      396.88162     -66774.3        190.48592      191.80799      550.94284    
     43100  -67144.638      395.10563     -66749.533      190.4658       191.79274      551.16957    
     43200  -67119.862      394.90611     -66724.956      190.44644      191.77466      551.39629    
     43300  -67099.105      393.13561     -66705.97       190.42976      191.75529      551.62302    
     43400  -67079.935      389.91854     -66690.016      190.41292      191.73594      551.84974    
     43500  -67061.617      392.81766     -66668.799      190.39426      191.71775      552.07647    
     43600  -67036.275      394.54181     -66641.733      190.37533      191.70124      552.30319    
     43700  -67007.731      395.61163     -66612.12       190.35627      191.68324      552.52992    
     43800  -66989.095      397.00009     -66592.095      190.33913      191.66503      552.75665    
     43900  -66968.072      393.01064     -66575.062      190.32186      191.64492      552.98337    
     44000  -66947.834      390.4336      -66557.401      190.30496      191.62658      553.2101     
     44100  -66928.355      392.65315     -66535.701      190.28573      191.6093       553.43682    
     44200  -66906.301      395.7217      -66510.58       190.26553      191.59394      553.66355    
     44300  -66877.063      398.04437     -66479.018      190.24546      191.57838      553.89027    
     44400  -66855.818      398.55873     -66457.259      190.22678      191.56115      554.117      
     44500  -66836.348      395.42146     -66440.926      190.21022      191.5427       554.34372    
     44600  -66814.897      392.24017     -66422.657      190.19342      191.5231       554.57045    
     44700  -66792.652      390.42621     -66402.225      190.17714      191.5049       554.79717    
     44800  -66771.837      392.51538     -66379.321      190.15895      191.48703      555.0239     
     44900  -66749.227      399.10399     -66350.123      190.14142      191.47036      555.25063    
     45000  -66722.793      397.9471      -66324.846      190.12351      191.45179      555.47735    
     45100  -66702.271      394.3554      -66307.915      190.10824      191.43308      555.70408    
     45200  -66685.497      394.95887     -66290.538      190.09125      191.41359      555.9308     
     45300  -66658.647      389.42144     -66269.225      190.07387      191.39729      556.15753    
     45400  -66639.052      393.04558     -66246.006      190.05424      191.38104      556.38425    
     45500  -66616.489      396.26833     -66220.221      190.03627      191.36516      556.61098    
     45600  -66588.718      395.85401     -66192.864      190.01888      191.34779      556.8377     
     45700  -66565.381      395.84125     -66169.54       190.00241      191.33036      557.06443    
     45800  -66545.852      389.96982     -66155.882      189.98509      191.31294      557.29115    
     45900  -66527.002      390.70477     -66136.297      189.96737      191.29701      557.51788    
     46000  -66500.697      388.00853     -66112.688      189.94928      191.28118      557.74461    
     46100  -66480.747      395.45699     -66085.29       189.93179      191.26419      557.97133    
     46200  -66451.273      392.86013     -66058.413      189.91617      191.24653      558.19806    
     46300  -66435.541      399.19519     -66036.346      189.90043      191.2278       558.42478    
     46400  -66411.226      388.06483     -66023.161      189.88424      191.2105       558.65151    
     46500  -66391.331      387.6498      -66003.681      189.86711      191.19357      558.87823    
     46600  -66372.468      392.0673      -65980.401      189.85029      191.17698      559.10496    
     46700  -66350.29       397.42392     -65952.866      189.83385      191.15931      559.33168    
     46800  -66322.527      396.66936     -65925.858      189.81816      191.14226      559.55841    
     46900  -66301.878      393.91613     -65907.962      189.80125      191.12482      559.78513    
     47000  -66288.318      395.31954     -65892.999      189.78404      191.1095       560.01186    
     47100  -66258.76       388.48351     -65870.277      189.7654       191.09439      560.23859    
     47200  -66237.404      393.57695     -65843.827      189.74735      191.08003      560.46531    
     47300  -66209.323      393.76979     -65815.553      189.73006      191.06401      560.69204    
     47400  -66189.124      395.88132     -65793.243      189.71428      191.04702      560.91876    
     47500  -66172.797      392.41042     -65780.386      189.69874      191.02971      561.14549    
     47600  -66151.534      393.65605     -65757.878      189.68249      191.0129       561.37221    
     47700  -66127.417      396.36104     -65731.056      189.66592      190.99676      561.59894    
     47800  -66098.128      393.7173      -65704.411      189.6492       190.98015      561.82566    
     47900  -66078.717      396.24408     -65682.473      189.63366      190.96365      562.05239    
     48000  -66058.087      389.95397     -65668.133      189.61689      190.94603      562.27911    
     48100  -66041.702      394.52988     -65647.172      189.60106      190.93007      562.50584    
     48200  -66017.114      396.40805     -65620.706      189.58382      190.91343      562.73257    
     48300  -65990.371      396.74555     -65593.625      189.56706      190.89727      562.95929    
     48400  -65966.573      396.08887     -65570.484      189.55026      190.88084      563.18602    
     48500  -65944.594      395.3717      -65549.223      189.53341      190.86438      563.41274    
     48600  -65925.834      397.71543     -65528.119      189.51639      190.84827      563.63947    
     48700  -65898.169      391.22035     -65506.949      189.49956      190.83189      563.86619    
     48800  -65879.864      394.17682     -65485.687      189.48297      190.81572      564.09292    
     48900  -65855.055      391.7209      -65463.335      189.46632      190.79881      564.31964    
     49000  -65830.082      391.92408     -65438.158      189.45022      190.7821       564.54637    
     49100  -65806.608      395.74602     -65410.862      189.43363      190.76487      564.77309    
     49200  -65785.14       397.21649     -65387.924      189.41727      190.74833      564.99982    
     49300  -65763.624      390.74536     -65372.878      189.40102      190.73126      565.22655    
     49400  -65743.658      391.49632     -65352.161      189.38531      190.71327      565.45327    
     49500  -65721.902      394.53988     -65327.362      189.37023      190.69546      565.68       
     49600  -65696.126      395.42296     -65300.703      189.35422      190.67764      565.90672    
     49700  -65670.501      396.98182     -65273.519      189.3379       190.66145      566.13345    
     49800  -65647.877      397.31145     -65250.566      189.32042      190.64507      566.36017    
     49900  -65630.593      394.79115     -65235.802      189.30331      190.62968      566.5869     
     50000  -65606.392      390.14847     -65216.243      189.28586      190.61359      566.81362    
     50100  -65584.232      391.17888     -65193.053      189.26916      190.59805      567.04035    
     50200  -65560.657      394.64788     -65166.009      189.25178      190.58198      567.26707    
     50300  -65537.015      400.5551      -65136.46       189.23507      190.56642      567.4938     
     50400  -65511.544      396.68808     -65114.856      189.21812      190.54925      567.72053    
     50500  -65491.409      390.62373     -65100.786      189.20291      190.53261      567.94725    
     50600  -65472.899      394.6549      -65078.244      189.18677      190.51461      568.17398    
     50700  -65447.797      394.43114     -65053.366      189.17115      190.49803      568.4007     
     50800  -65423.452      395.49472     -65027.957      189.15436      190.48114      568.62743    
     50900  -65402.775      397.4831      -65005.292      189.13759      190.46437      568.85415    
     51000  -65383.198      394.82311     -64988.374      189.12185      190.44811      569.08088    
     51100  -65358.643      390.58158     -64968.062      189.10499      190.43056      569.3076     
     51200  -65335.737      393.47361     -64942.263      189.08924      190.41468      569.53433    
     51300  -65306.514      395.49289     -64911.021      189.07116      190.398        569.76105    
     51400  -65282.086      397.99191     -64884.094      189.05453      190.38333      569.98778    
     51500  -65262.512      397.57596     -64864.936      189.03688      190.36674      570.21451    
     51600  -65236.348      391.74685     -64844.601      189.02104      190.35027      570.44123    
     51700  -65221.102      395.36212     -64825.74       189.00524      190.33338      570.66796    
     51800  -65197.284      391.41946     -64805.864      188.98765      190.31636      570.89468    
     51900  -65172.89       390.4834      -64782.407      188.97107      190.30207      571.12141    
     52000  -65147.495      394.1722      -64753.323      188.95225      190.28516      571.34813    
     52100  -65119.69       395.71384     -64723.977      188.93683      190.26936      571.57486    
     52200  -65101.135      396.00863     -64705.126      188.92029      190.25014      571.80158    
     52300  -65083.219      396.77744     -64686.442      188.90586      190.23325      572.02831    
     52400  -65056.78       391.7711      -64665.009      188.88844      190.21513      572.25503    
     52500  -65030.891      387.45034     -64643.441      188.87213      190.19888      572.48176    
     52600  -65010.218      388.45086     -64621.767      188.85474      190.18141      572.70849    
     52700  -64991.218      391.12531     -64600.093      188.83818      190.16465      572.93521    
     52800  -64965.467      389.10653     -64576.361      188.82117      190.1473       573.16194    
     52900  -64942.672      393.31581     -64549.356      188.80403      190.13025      573.38866    
     53000  -64915.815      394.58135     -64521.234      188.7866       190.11363      573.61539    
     53100  -64891.486      393.49183     -64497.994      188.76866      190.0973       573.84211    
     53200  -64875.018      392.40909     -64482.609      188.75098      190.08067      574.06884    
     53300  -64853.764      393.15687     -64460.607      188.73364      190.06339      574.29556    
     53400  -64829.182      392.34602     -64436.836      188.7171       190.04585      574.52229    
     53500  -64804.039      393.59694     -64410.442      188.70065      190.02769      574.74901    
     53600  -64776.949      394.82513     -64382.124      188.68375      190.00932      574.97574    
     53700  -64755.124      396.11206     -64359.012      188.66715      189.9923       575.20247    
     53800  -64734.036      390.66811     -64343.368      188.64964      189.97412      575.42919    
     53900  -64712.456      390.79458     -64321.662      188.63384      189.95672      575.65592    
     54000  -64690.719      392.63145     -64298.088      188.61631      189.93827      575.88264    
     54100  -64663.888      390.01061     -64273.878      188.59895      189.92168      576.10937    
     54200  -64642.66       391.61921     -64251.041      188.5802       189.90525      576.33609    
     54300  -64624.507      393.37031     -64231.136      188.56236      189.8886       576.56282    
     54400  -64598.576      389.08378     -64209.492      188.54537      189.87117      576.78954    
     54500  -64575.547      393.50535     -64182.042      188.52834      189.853        577.01627    
     54600  -64543.456      393.34863     -64150.107      188.51154      189.83591      577.24299    
     54700  -64523.517      396.77472     -64126.743      188.49282      189.8184       577.46972    
     54800  -64503.725      395.87848     -64107.847      188.47549      189.80287      577.69645    
     54900  -64480.631      394.72242     -64085.909      188.45673      189.78443      577.92317    
     55000  -64455.351      390.87809     -64064.473      188.44129      189.76707      578.1499     
     55100  -64432.788      389.62957     -64043.158      188.42385      189.74766      578.37662    
     55200  -64408.368      386.53017     -64021.838      188.40693      189.73057      578.60335    
     55300  -64394.702      391.13025     -64003.572      188.38834      189.71309      578.83007    
     55400  -64367.716      388.36643     -63979.35       188.37089      189.6962       579.0568     
     55500  -64338.841      392.16994     -63946.671      188.35361      189.67774      579.28352    
     55600  -64316.574      396.94204     -63919.632      188.3374       189.65879      579.51025    
     55700  -64294.844      397.31417     -63897.53       188.32072      189.64032      579.73697    
     55800  -64269.171      391.77756     -63877.393      188.30274      189.62325      579.9637     
     55900  -64248.952      394.16385     -63854.788      188.28373      189.60677      580.19043    
     56000  -64226.43       395.6447      -63830.786      188.26492      189.59032      580.41715    
     56100  -64203.134      395.84323     -63807.291      188.24627      189.57333      580.64388    
     56200  -64179.624      396.46903     -63783.155      188.22877      189.55572      580.8706     
     56300  -64151.404      392.54215     -63758.862      188.21111      189.53702      581.09733    
     56400  -64126.125      390.81388     -63735.312      188.19349      189.51947      581.32405    
     56500  -64109.467      395.5944      -63713.873      188.17471      189.50174      581.55078    
     56600  -64084.519      391.27689     -63693.242      188.15648      189.48424      581.7775     
     56700  -64062.378      390.58919     -63671.789      188.13858      189.4661       582.00423    
     56800  -64043.226      388.50936     -63654.717      188.12134      189.44697      582.23095    
     56900  -64018.628      387.7532      -63630.875      188.10446      189.42792      582.45768    
     57000  -63990.222      391.10503     -63599.117      188.08622      189.40883      582.68441    
     57100  -63965.169      394.5571      -63570.612      188.06825      189.39174      582.91113    
     57200  -63935.089      389.28049     -63545.809      188.04876      189.37292      583.13786    
     57300  -63917.638      392.45        -63525.188      188.03197      189.35551      583.36458    
     57400  -63897.135      391.88891     -63505.247      188.01277      189.33558      583.59131    
     57500  -63874.158      394.79626     -63479.362      187.99561      189.31867      583.81803    
     57600  -63843.264      390.84588     -63452.418      187.97526      189.29927      584.04476    
     57700  -63821.545      394.42373     -63427.121      187.95806      189.28219      584.27148    
     57800  -63797.436      388.40869     -63409.027      187.93912      189.26216      584.49821    
     57900  -63776.935      389.70508     -63387.23       187.92221      189.24387      584.72493    
     58000  -63752.647      392.89207     -63359.755      187.90327      189.22415      584.95166    
     58100  -63727.306      395.04906     -63332.257      187.88523      189.20635      585.17839    
     58200  -63700.176      391.20554     -63308.97       187.8661       189.18781      585.40511    
     58300  -63678.962      388.52467     -63290.438      187.84723      189.17022      585.63184    
     58400  -63657.661      391.45044     -63266.211      187.82829      189.15175      585.85856    
     58500  -63633.568      393.73823     -63239.83       187.81035      189.13312      586.08529    
     58600  -63604.923      392.95142     -63211.972      187.79256      189.11378      586.31201    
     58700  -63582.109      395.95479     -63186.154      187.77457      189.09466      586.53874    
     58800  -63556.212      389.61895     -63166.593      187.75635      189.07613      586.76546    
     58900  -63535.396      390.7733      -63144.622      187.73746      189.0576       586.99219    
     59000  -63510.891      391.32092     -63119.57       187.71857      189.0398       587.21891    
     59100  -63485.876      391.27313     -63094.603      187.69903      189.0211       587.44564    
     59200  -63464.483      390.05366     -63074.429      187.68131      189.00296      587.67237    
     59300  -63440.371      388.17895     -63052.192      187.66222      188.98265      587.89909    
     59400  -63414.73       390.9023      -63023.828      187.64468      188.96528      588.12582    
     59500  -63383.564      392.58869     -62990.976      187.62342      188.94655      588.35254    
     59600  -63354.769      394.6871      -62960.082      187.60455      188.93064      588.57927    
     59700  -63335.657      392.56863     -62943.088      187.58426      188.91087      588.80599    
     59800  -63316.493      395.37261     -62921.12       187.5685       188.89242      589.03272    
     59900  -63294.779      394.4991      -62900.28       187.54986      188.87062      589.25944    
     60000  -63271.298      393.79029     -62877.508      187.53351      188.85275      589.48617    
     60100  -63243.773      389.59592     -62854.177      187.51264      188.83305      589.71289    
     60200  -63220.548      391.96346     -62828.585      187.4954       188.81638      589.93962    
     60300  -63195.758      393.13843     -62802.62       187.47593      188.79544      590.16635    
     60400  -63166.816      391.01011     -62775.806      187.45931      188.77686      590.39307    
     60500  -63140.09       389.77587     -62750.314      187.43914      188.75752      590.6198     
     60600  -63118.029      391.06527     -62726.964      187.41871      188.74113      590.84652    
     60700  -63097.632      392.60874     -62705.023      187.39785      188.72347      591.07325    
     60800  -63071.623      392.10445     -62679.519      187.37962      188.70486      591.29997    
     60900  -63041.784      390.06621     -62651.718      187.36225      188.68399      591.5267     
     61000  -63019.036      392.711       -62626.325      187.34457      188.66399      591.75342    
     61100  -62996.402      391.72342     -62604.679      187.32462      188.64553      591.98015    
     61200  -62970.877      390.87032     -62580.007      187.30449      188.62883      592.20687    
     61300  -62942.818      388.65026     -62554.168      187.28494      188.60974      592.4336     
     61400  -62922.684      394.48951     -62528.195      187.26809      188.58935      592.66032    
     61500  -62894.089      389.86159     -62504.228      187.25118      188.56779      592.88705    
     61600  -62874.219      393.65675     -62480.562      187.23329      188.54809      593.11378    
     61700  -62843.159      389.3394      -62453.819      187.21334      188.52975      593.3405     
     61800  -62813.449      392.3186      -62421.13       187.19323      188.51235      593.56723    
     61900  -62787.74       400.08028     -62387.659      187.17351      188.49306      593.79395    
     62000  -62758.985      393.14292     -62365.842      187.15647      188.47339      594.02068    
     62100  -62741.772      397.80703     -62343.965      187.13833      188.45285      594.2474     
     62200  -62716.566      396.34205     -62320.224      187.1195       188.43501      594.47413    
     62300  -62691.773      394.23052     -62297.542      187.09836      188.41745      594.70085    
     62400  -62664.457      393.17551     -62271.281      187.07941      188.40035      594.92758    
     62500  -62634.714      389.20031     -62245.514      187.06067      188.38054      595.1543     
     62600  -62612.28       388.96827     -62223.311      187.04289      188.36138      595.38103    
     62700  -62589.246      389.08081     -62200.165      187.02418      188.34298      595.60776    
     62800  -62560.071      391.47828     -62168.593      187.0046       188.32475      595.83448    
     62900  -62531.831      394.44196     -62137.389      186.98594      188.3066       596.06121    
     63000  -62503.364      394.41818     -62108.946      186.96789      188.28663      596.28793    
     63100  -62471.261      388.07145     -62083.189      186.9514       188.26643      596.51466    
     63200  -62451.692      393.12965     -62058.563      186.93344      188.24665      596.74138    
     63300  -62424.779      394.88979     -62029.889      186.91491      188.22911      596.96811    
     63400  -62394.702      390.70379     -62003.999      186.89457      188.21079      597.19483    
     63500  -62374.72       395.21259     -61979.507      186.87676      188.19339      597.42156    
     63600  -62342.784      391.03311     -61951.751      186.85815      188.17341      597.64828    
     63700  -62319.738      396.54524     -61923.193      186.84148      188.15503      597.87501    
     63800  -62288.664      393.1847      -61895.479      186.82171      188.1366       598.10174    
     63900  -62262.388      395.38458     -61867.004      186.80225      188.12078      598.32846    
     64000  -62235.98       397.56625     -61838.414      186.7823       188.10364      598.55519    
     64100  -62208.601      396.19852     -61812.402      186.76423      188.0853       598.78191    
     64200  -62182.705      396.03793     -61786.668      186.74737      188.0655       599.00864    
     64300  -62148.08       390.52717     -61757.553      186.73023      188.04627      599.23536    
     64400  -62123.961      393.16586     -61730.795      186.71207      188.02783      599.46209    
     64500  -62094.787      391.71242     -61703.075      186.69386      188.01021      599.68881    
     64600  -62071.82       397.86329     -61673.956      186.67562      187.99168      599.91554    
     64700  -62039.74       393.54663     -61646.193      186.65863      187.97318      600.14226    
     64800  -62012.766      394.05588     -61618.711      186.64054      187.95438      600.36899    
     64900  -61984.571      395.15154     -61589.419      186.62262      187.93748      600.59572    
     65000  -61953.193      393.54205     -61559.651      186.60412      187.91933      600.82244    
     65100  -61932.376      400.80784     -61531.569      186.58737      187.90082      601.04917    
     65200  -61898.068      395.33388     -61502.734      186.5702       187.8819       601.27589    
     65300  -61869.468      394.84856     -61474.62       186.55249      187.86443      601.50262    
     65400  -61839.965      394.81861     -61445.146      186.53357      187.84747      601.72934    
     65500  -61812.875      396.12417     -61416.751      186.51526      187.83042      601.95607    
     65600  -61779.779      391.58906     -61388.19       186.498        187.81215      602.18279    
     65700  -61752.531      393.61156     -61358.92       186.48147      187.79363      602.40952    
     65800  -61722.388      392.16016     -61330.228      186.46433      187.77596      602.63624    
     65900  -61697.202      396.05755     -61301.145      186.44607      187.75924      602.86297    
     66000  -61664.181      392.86667     -61271.314      186.42884      187.74255      603.0897     
     66100  -61631.201      390.41924     -61240.782      186.41247      187.72391      603.31642    
     66200  -61606.171      396.05568     -61210.115      186.39673      187.70619      603.54315    
     66300  -61568.488      389.49365     -61178.995      186.37942      187.68883      603.76987    
     66400  -61540.615      390.82403     -61149.791      186.36267      187.67241      603.9966     
     66500  -61514.143      394.00969     -61120.133      186.34563      187.65469      604.22332    
     66600  -61484.409      395.33833     -61089.071      186.33036      187.63772      604.45005    
     66700  -61455.784      396.9283      -61058.855      186.31344      187.61972      604.67677    
     66800  -61422.973      394.79474     -61028.178      186.29639      187.60503      604.9035     
     66900  -61394.31       396.2121      -60998.098      186.27687      187.58978      605.13022    
     67000  -61364.26       397.50433     -60966.756      186.26023      187.57482      605.35695    
     67100  -61332.276      396.3805      -60935.895      186.24467      187.55653      605.58368    
     67200  -61299.197      394.6883      -60904.509      186.2307       187.53934      605.8104     
     67300  -61271.401      398.22311     -60873.177      186.21381      187.52273      606.03713    
     67400  -61235.85       393.52646     -60842.323      186.19678      187.50899      606.26385    
     67500  -61205.8        394.26745     -60811.532      186.17997      187.49295      606.49058    
     67600  -61180.028      400.0609      -60779.967      186.16633      187.47581      606.7173     
     67700  -61142.525      394.04933     -60748.476      186.1522       187.45761      606.94403    
     67800  -61111.086      393.86661     -60717.219      186.13689      187.44208      607.17075    
     67900  -61087.126      401.80413     -60685.322      186.11954      187.42731      607.39748    
     68000  -61050.255      397.88436     -60652.37       186.10423      187.41292      607.6242     
     68100  -61012.922      394.36013     -60618.562      186.08879      187.39619      607.85093    
     68200  -60978.888      393.5224      -60585.366      186.07439      187.38093      608.07766    
     68300  -60945.32       393.53423     -60551.786      186.05796      187.36634      608.30438    
     68400  -60919.571      400.18294     -60519.389      186.04185      187.35305      608.53111    
     68500  -60878.416      391.92051     -60486.496      186.02657      187.3376       608.75783    
     68600  -60851.517      398.84731     -60452.67       186.01368      187.32107      608.98456    
     68700  -60814.888      394.33059     -60420.557      185.99967      187.30504      609.21128    
     68800  -60784.962      398.42945     -60386.533      185.98396      187.29146      609.43801    
     68900  -60752.648      398.31436     -60354.334      185.96824      187.27799      609.66473    
     69000  -60719.63       398.58188     -60321.048      185.95384      187.2625       609.89146    
     69100  -60677.907      391.37115     -60286.536      185.9412       187.24657      610.11818    
     69200  -60645.832      394.25612     -60251.576      185.92754      187.23123      610.34491    
     69300  -60618.046      398.67108     -60219.375      185.91279      187.21786      610.57164    
     69400  -60583.775      398.46774     -60185.307      185.89726      187.20478      610.79836    
     69500  -60548.108      397.85771     -60150.25       185.88355      187.19154      611.02509    
     69600  -60508.167      391.99059     -60116.176      185.86981      187.17628      611.25181    
     69700  -60482.329      401.29953     -60081.03       185.85742      187.16289      611.47854    
     69800  -60442.443      396.50191     -60045.941      185.84283      187.14895      611.70526    
     69900  -60408.305      397.7549      -60010.55       185.82923      187.13655      611.93199    
     70000  -60369.42       393.36035     -59976.06       185.81518      187.12273      612.15871    
     70100  -60340.683      398.82758     -59941.856      185.80272      187.1098       612.38544    
     70200  -60302.901      397.48423     -59905.417      185.78893      187.09593      612.61216    
     70300  -60271.476      401.8812      -59869.595      185.77617      187.08331      612.83889    
     70400  -60233.623      400.8174      -59832.805      185.76344      187.06945      613.06562    
     70500  -60199.66       403.00351     -59796.657      185.75204      187.05582      613.29234    
     70600  -60157.707      397.95525     -59759.752      185.73936      187.04216      613.51907    
     70700  -60118.248      393.85126     -59724.396      185.72667      187.03048      613.74579    
     70800  -60083.098      395.68307     -59687.415      185.71318      187.01805      613.97252    
     70900  -60053.941      401.79794     -59652.143      185.70136      187.00599      614.19924    
     71000  -60015.971      399.94408     -59616.027      185.68903      186.99271      614.42597    
     71100  -59980.393      401.51561     -59578.877      185.677        186.98086      614.65269    
     71200  -59945.193      402.23958     -59542.954      185.6634       186.96935      614.87942    
     71300  -59906.081      399.37829     -59506.702      185.65099      186.9586       615.10614    
     71400  -59865.722      397.12894     -59468.593      185.63885      186.94571      615.33287    
     71500  -59829.302      396.26132     -59433.04       185.6284       186.93339      615.5596     
     71600  -59793.653      398.49382     -59395.159      185.61635      186.92079      615.78632    
     71700  -59759.119      403.60308     -59355.516      185.605        186.90939      616.01305    
     71800  -59718.853      402.55942     -59316.294      185.59356      186.897        616.23977    
     71900  -59680.794      402.31687     -59278.477      185.5828       186.88512      616.4665     
     72000  -59642.167      401.98956     -59240.178      185.57118      186.87356      616.69322    
     72100  -59602.79       400.92934     -59201.86       185.5589       186.8629       616.91995    
     72200  -59569.529      406.30449     -59163.225      185.54713      186.85219      617.14667    
     72300  -59527.39       405.1012      -59122.289      185.53603      186.83995      617.3734     
     72400  -59488.742      406.49763     -59082.244      185.52584      186.82831      617.60012    
     72500  -59449.773      407.63691     -59042.136      185.51413      186.81727      617.82685    
     72600  -59405.379      402.94251     -59002.437      185.50249      186.80709      618.05358    
     72700  -59376.858      409.29702     -58967.561      185.49116      186.79629      618.2803     
     72800  -59334.881      406.52294     -58928.358      185.48122      186.78497      618.50703    
[...]
     81600  -73043.672      398.57108     -72645.101      185.50631      186.63631      638.45887    
     81700  -73101.64       390.73848     -72710.902      185.51971      186.6469       638.68559    
     81800  -73149.61       388.48756     -72761.122      185.534        186.65761      638.91232    
     81900  -73183.267      385.35206     -72797.915      185.54857      186.66898      639.13904    
     82000  -73203.663      384.14337     -72819.52       185.56277      186.681        639.36577    
     82100  -73213.625      387.44278     -72826.183      185.5763       186.69285      639.59249    
     82200  -73210.953      387.74116     -72823.212      185.58968      186.70465      639.81922    
     82300  -73196.401      384.85767     -72811.543      185.60238      186.71617      640.04594    
     82400  -73166.672      380.4988      -72786.173      185.61486      186.72675      640.27267    
     82500  -73119.887      377.46744     -72742.42       185.62796      186.7366       640.49939    
     82600  -73054.78       372.76817     -72682.012      185.6407       186.7456       640.72612    
     82700  -72970.214      361.56577     -72608.648      185.65289      186.75486      640.95285    
     82800  -72872.892      349.24661     -72523.646      185.66437      186.764        641.17957    
     82900  -72771.477      341.20358     -72430.274      185.67504      186.77386      641.4063     
     83000  -72686.921      353.97055     -72332.951      185.6829       186.78122      641.63302    
     83100  -72603.414      364.31086     -72239.103      185.69141      186.78785      641.85975    
     83200  -72532.796      380.1478      -72152.648      185.70408      186.79685      642.08647    
     83300  -72477.061      395.76704     -72081.294      185.71276      186.80094      642.3132     
     83400  -72450.995      413.20887     -72037.786      185.72936      186.81334      642.53992    
     83500  -72456.182      413.70371     -72042.478      185.73687      186.81674      642.76665    
     83600  -72485.032      396.20552     -72088.827      185.75676      186.83022      642.99337    
     83700  -72475.495      349.54475     -72125.951      185.77722      186.84051      643.2201     
     83800  -72461.519      367.49996     -72094.019      185.80482      186.85247      643.44683    
     83900  -72489.136      452.81348     -72036.322      185.82948      186.86768      643.67355    
     84000  -72515.113      429.57348     -72085.54       185.85457      186.87672      643.90028    
     84100  -72574.955      392.33916     -72182.616      185.88108      186.89145      644.127      
     84200  -72604.233      363.1804      -72241.052      185.90974      186.90397      644.35373    
     84300  -72626.163      384.61094     -72241.552      185.93828      186.91793      644.58045    
     84400  -72647.78       422.26909     -72225.511      185.96762      186.93129      644.80718    
     84500  -72656.474      397.40528     -72259.069      185.99793      186.9401       645.0339     
     84600  -72684.763      380.57516     -72304.188      186.02816      186.94767      645.26063    
     84700  -72701.323      378.26803     -72323.055      186.06184      186.95853      645.48735    
     84800  -72703.546      391.06644     -72312.48       186.09201      186.96902      645.71408    
     84900  -72714.039      412.7321      -72301.307      186.12097      186.9839       645.94081    
     85000  -72742.889      419.29978     -72323.589      186.15673      187.00114      646.16753    
     85100  -72779.895      393.67988     -72386.215      186.19633      187.01915      646.39426    
     85200  -72799.821      363.03056     -72436.791      186.23986      187.03298      646.62098    
     85300  -72812.093      375.38355     -72436.71       186.28522      187.05181      646.84771    
     85400  -72810.422      405.12193     -72405.3        186.33098      187.06927      647.07443    
     85500  -72800.877      413.21645     -72387.661      186.37605      187.09071      647.30116    
     85600  -72809.34       402.55945     -72406.781      186.42193      187.11464      647.52788    
     85700  -72819.473      380.22843     -72439.245      186.47022      187.14416      647.75461    
     85800  -72838.251      384.76872     -72453.482      186.51338      187.17222      647.98133    
     85900  -72847.185      390.27911     -72456.906      186.56003      187.20183      648.20806    
     86000  -72847.513      390.63112     -72456.882      186.60654      187.2259       648.43479    
     86100  -72847.446      396.80475     -72450.642      186.6553       187.24973      648.66151    
     86200  -72840.081      393.18013     -72446.901      186.70758      187.27101      648.88824    
     86300  -72837.702      391.58729     -72446.115      186.75654      187.28947      649.11496    
     86400  -72841.331      394.82487     -72446.506      186.80182      187.3028       649.34169    
     86500  -72851.527      397.04336     -72454.483      186.84567      187.31571      649.56841    
     86600  -72869.707      397.10263     -72472.605      186.88888      187.33202      649.79514    
     86700  -72887.241      390.99579     -72496.245      186.92805      187.35028      650.02186    
     86800  -72892.422      381.63771     -72510.785      186.9665       187.36413      650.24859    
     86900  -72885.398      381.80135     -72503.597      187.00383      187.37635      650.47531    
     87000  -72881.047      398.31956     -72482.727      187.03924      187.38187      650.70204    
     87100  -72879.582      408.84416     -72470.738      187.07297      187.38999      650.92877    
     87200  -72876.343      393.59088     -72482.752      187.10367      187.39833      651.15549    
     87300  -72880.013      381.63431     -72498.379      187.12871      187.4054       651.38222    
     87400  -72875.132      380.83027     -72494.302      187.14755      187.41564      651.60894    
     87500  -72860.435      393.1847      -72467.25       187.16489      187.43065      651.83567    
     87600  -72847.624      409.39857     -72438.226      187.17755      187.44236      652.06239    
     87700  -72851.08       409.87442     -72441.206      187.1954       187.45873      652.28912    
     87800  -72874.266      394.02606     -72480.24       187.21435      187.47338      652.51584    
     87900  -72894.647      373.6288      -72521.018      187.23316      187.491        652.74257    
     88000  -72899.977      370.34804     -72529.629      187.24938      187.50831      652.96929    
     88100  -72899.614      395.38819     -72504.226      187.27012      187.52982      653.19602    
     88200  -72891.661      410.32335     -72481.338      187.2874       187.54818      653.42275    
     88300  -72884.985      398.48682     -72486.498      187.31207      187.56416      653.64947    
     88400  -72886.284      383.31312     -72502.971      187.34034      187.57132      653.8762     
     88500  -72880.356      380.43912     -72499.917      187.37331      187.57558      654.10292    
     88600  -72872.699      395.63572     -72477.063      187.40906      187.57229      654.32965    
     88700  -72870.144      410.43212     -72459.712      187.44519      187.57013      654.55637    
     88800  -72888.539      411.95302     -72476.585      187.47769      187.57281      654.7831     
     88900  -72910.717      389.22408     -72521.493      187.50858      187.58031      655.00982    
     89000  -72929.51       373.5484      -72555.961      187.54109      187.59163      655.23655    
     89100  -72933.112      375.95062     -72557.161      187.57191      187.60169      655.46327    
     89200  -72920.713      390.21336     -72530.499      187.60849      187.61174      655.69       
     89300  -72914.57       408.24808     -72506.322      187.65157      187.61915      655.91673    
     89400  -72905.455      400.86015     -72504.595      187.6941       187.62714      656.14345    
     89500  -72895.09       381.1522      -72513.937      187.73712      187.64017      656.37018    
     89600  -72888.303      381.17143     -72507.132      187.77569      187.6557       656.5969     
     89700  -72865.572      387.51121     -72478.061      187.80834      187.67472      656.82363    
     89800  -72840.391      398.38855     -72442.003      187.83992      187.6976       657.05035    
     89900  -72828.745      406.18466     -72422.56       187.86518      187.72037      657.27708    
     90000  -72829.823      401.73217     -72428.091      187.88982      187.74561      657.5038     
     90100  -72828.759      381.98772     -72446.771      187.90949      187.76772      657.73053    
     90200  -72837.286      384.44934     -72452.836      187.93315      187.79096      657.95725    
     90300  -72827.732      386.12843     -72441.604      187.95373      187.80986      658.18398    
     90400  -72823.845      400.84756     -72422.997      187.97473      187.8307       658.41071    
     90500  -72824.204      404.59435     -72419.609      188.00049      187.85184      658.63743    
     90600  -72832.671      394.44533     -72438.226      188.02736      187.87387      658.86416    
     90700  -72838.187      379.77617     -72458.411      188.05123      187.89526      659.09088    
     90800  -72836.932      380.52164     -72456.41       188.07739      187.91898      659.31761    
     90900  -72832.678      396.68753     -72435.99       188.10579      187.94118      659.54433    
     91000  -72825.454      401.06749     -72424.387      188.13545      187.95795      659.77106    
     91100  -72830.233      395.19964     -72435.033      188.16641      187.97689      659.99778    
     91200  -72836.225      383.64098     -72452.584      188.19858      187.9967       660.22451    
     91300  -72835.402      380.42611     -72454.976      188.22673      188.01478      660.45123    
     91400  -72827.258      388.95788     -72438.3        188.25939      188.03611      660.67796    
     91500  -72825.913      404.14927     -72421.763      188.29071      188.05065      660.90469    
     91600  -72831.713      403.08409     -72428.629      188.32603      188.06201      661.13141    
     91700  -72847.64       391.67115     -72455.969      188.36266      188.06821      661.35814    
     91800  -72868.911      383.61765     -72485.293      188.4052       188.06913      661.58486    
     91900  -72881.614      381.8007      -72499.813      188.44693      188.06369      661.81159    
     92000  -72880.52       384.02187     -72496.498      188.49442      188.06058      662.03831    
     92100  -72879.813      397.17573     -72482.637      188.54054      188.05154      662.26504    
     92200  -72875.975      400.55497     -72475.42       188.59115      188.04404      662.49176    
     92300  -72887.012      398.96904     -72488.043      188.64501      188.03447      662.71849    
     92400  -72889.906      379.52429     -72510.382      188.70319      188.02393      662.94521    
     92500  -72887.39       374.67111     -72512.719      188.75916      188.01379      663.17194    
     92600  -72874.697      389.24798     -72485.449      188.81526      188.00854      663.39867    
     92700  -72857.847      405.40667     -72452.44       188.86818      188.004        663.62539    
     92800  -72843.62       404.41455     -72439.205      188.9186       188.00055      663.85212    
     92900  -72843.873      396.16163     -72447.712      188.96636      187.99679      664.07884    
     93000  -72847.591      385.09658     -72462.494      189.0112       187.99158      664.30557    
     93100  -72846.895      383.39        -72463.505      189.04694      187.98447      664.53229    
     93200  -72840.528      393.27525     -72447.253      189.07703      187.97642      664.75902    
     93300  -72844.979      410.32084     -72434.658      189.10098      187.96621      664.98574    
     93400  -72850.727      402.93926     -72447.788      189.11789      187.95938      665.21247    
     93500  -72867.187      389.65083     -72477.536      189.12597      187.95753      665.43919    
     93600  -72886.537      383.63718     -72502.9        189.125        187.96174      665.66592    
     93700  -72889.519      379.64305     -72509.876      189.11679      187.97074      665.89265    
     93800  -72893.777      394.6579      -72499.119      189.10848      187.98531      666.11937    
     93900  -72889.383      397.24665     -72492.137      189.10249      188.00058      666.3461     
     94000  -72897.026      395.26058     -72501.765      189.10186      188.01641      666.57282    
     94100  -72899.106      383.53394     -72515.572      189.10749      188.03104      666.79955    
     94200  -72896.597      382.7954      -72513.801      189.11838      188.04484      667.02627    
     94300  -72894.365      397.48109     -72496.884      189.1325       188.05722      667.253      
     94400  -72888.213      404.00267     -72484.211      189.15117      188.06989      667.47972    
     94500  -72884.082      392.64636     -72491.436      189.16989      188.08114      667.70645    
     94600  -72882.632      381.80965     -72500.822      189.19157      188.08911      667.93317    
     94700  -72885.603      388.4388      -72497.164      189.217        188.09677      668.1599     
     94800  -72877.153      393.02222     -72484.131      189.24357      188.1024       668.38663    
     94900  -72868.857      396.23561     -72472.621      189.271        188.10922      668.61335    
     95000  -72862.936      394.04211     -72468.894      189.29276      188.11718      668.84008    
     95100  -72859.938      391.52113     -72468.416      189.31         188.13098      669.0668     
     95200  -72855.633      389.60257     -72466.031      189.31883      188.14855      669.29353    
     95300  -72855.042      393.48048     -72461.562      189.32456      188.17083      669.52025    
     95400  -72849.545      391.87148     -72457.673      189.32735      188.19162      669.74698    
     95500  -72847.432      392.94677     -72454.485      189.33242      188.21077      669.9737     
     95600  -72848.253      394.59274     -72453.66       189.33628      188.22567      670.20043    
     95700  -72850.159      395.28088     -72454.878      189.34659      188.23996      670.42715    
     95800  -72851.761      393.18157     -72458.58       189.35461      188.25084      670.65388    
     95900  -72857.327      392.7519      -72464.575      189.36195      188.26405      670.88061    
     96000  -72858.355      388.90579     -72469.449      189.36942      188.27396      671.10733    
     96100  -72859.237      389.78331     -72469.453      189.38037      188.2829       671.33406    
     96200  -72855.073      390.68065     -72464.392      189.39469      188.28831      671.56078    
     96300  -72849.25       392.13018     -72457.12       189.41415      188.29282      671.78751    
     96400  -72844.623      393.43948     -72451.184      189.4351       188.29479      672.01423    
     96500  -72845.317      397.44237     -72447.875      189.45661      188.29541      672.24096    
     96600  -72851.261      397.31491     -72453.947      189.47958      188.29662      672.46768    
     96700  -72854.09       387.40314     -72466.687      189.50174      188.29562      672.69441    
     96800  -72861.567      386.95224     -72474.615      189.52551      188.29328      672.92113    
     96900  -72870.213      394.34197     -72475.871      189.55105      188.28586      673.14786    
     97000  -72871.09       395.71432     -72475.376      189.58209      188.27455      673.37459    
     97100  -72866.148      387.95157     -72478.197      189.61666      188.25882      673.60131    
     97200  -72876.521      392.4796      -72484.041      189.65539      188.24292      673.82804    
     97300  -72881.639      391.15476     -72490.484      189.69255      188.22732      674.05476    
     97400  -72879.83       388.98217     -72490.848      189.72682      188.21613      674.28149    
     97500  -72881.172      395.00623     -72486.166      189.75992      188.2074       674.50821    
     97600  -72881.535      395.46161     -72486.073      189.79292      188.20132      674.73494    
     97700  -72886.114      392.58307     -72493.531      189.82772      188.19745      674.96166    
     97800  -72885.139      385.49074     -72499.649      189.86144      188.19413      675.18839    
     97900  -72878.773      384.53455     -72494.238      189.89495      188.19426      675.41511    
     98000  -72877.357      396.07796     -72481.279      189.92628      188.19703      675.64184    
     98100  -72875.812      399.83184     -72475.98       189.95381      188.20416      675.86856    
     98200  -72884.7        396.22905     -72488.471      189.98108      188.21581      676.09529    
     98300  -72891.037      386.58243     -72504.455      190.00869      188.22766      676.32202    
     98400  -72896.707      387.63644     -72509.071      190.04         188.23948      676.54874    
     98500  -72888.457      387.31488     -72501.142      190.07679      188.24715      676.77547    
     98600  -72878.548      394.51242     -72484.035      190.1195       188.25263      677.00219    
     98700  -72867.75       400.27286     -72467.477      190.16521      188.25481      677.22892    
     98800  -72863.617      400.51644     -72463.101      190.21204      188.25881      677.45564    
     98900  -72867.361      393.49819     -72473.863      190.25539      188.26241      677.68237    
     99000  -72869.242      385.48723     -72483.755      190.29724      188.26827      677.90909    
     99100  -72869.442      385.06625     -72484.376      190.33822      188.27261      678.13582    
     99200  -72864.936      392.64326     -72472.293      190.37809      188.27537      678.36254    
     99300  -72855.891      397.15193     -72458.739      190.41456      188.27584      678.58927    
     99400  -72854.774      398.19028     -72456.584      190.44497      188.278        678.816      
     99500  -72859.237      394.34713     -72464.889      190.46847      188.28443      679.04272    
     99600  -72860.37       385.95001     -72474.42       190.48157      188.2934       679.26945    
     99700  -72866.196      390.14554     -72476.05       190.48955      188.30866      679.49617    
     99800  -72866.907      392.84287     -72474.064      190.48932      188.32279      679.7229     
     99900  -72866.572      392.7475      -72473.825      190.49028      188.33633      679.94962    
    100000  -72872.576      395.69692     -72476.879      190.49208      188.3473       680.17635    
Loop time of 2004.83 on 12 procs for 100000 steps with 10120 atoms

Performance: 4.310 ns/day, 5.569 hours/ns, 49.880 timesteps/s, 504.781 katom-step/s
95.4% CPU use with 12 MPI tasks x 1 OpenMP threads

MPI task timing breakdown:
Section |  min time  |  avg time  |  max time  |%varavg| %total
---------------------------------------------------------------
Pair    | 1478.1     | 1658.2     | 1849.7     | 318.4 | 82.71
Neigh   | 9.4183     | 13.834     | 17.836     |  86.1 |  0.69
Comm    | 85.273     | 281.07     | 465.8      | 791.2 | 14.02
Output  | 0.49448    | 0.5374     | 0.59447    |   4.1 |  0.03
Modify  | 48.006     | 49.001     | 49.98      |   9.8 |  2.44
Other   |            | 2.23       |            |       |  0.11

Nlocal:        843.333 ave        1283 max         291 min
Histogram: 2 0 2 0 1 0 2 0 4 1
Nghost:        2849.42 ave        4187 max        1182 min
Histogram: 1 2 1 0 0 2 1 1 1 3
Neighs:              0 ave           0 max           0 min
Histogram: 12 0 0 0 0 0 0 0 0 0

Total # of neighbors = 0
Ave neighs/atom = 0
Neighbor list builds = 762
Dangerous builds = 0
Total wall time: 0:33:25
