LAMMPS (2 Aug 2023 - Update 3)
OMP_NUM_THREADS environment is not set. Defaulting to 1 thread. (src/comm.cpp:98)
  using 1 OpenMP thread(s) per MPI task

# 1------general---------------
units                             metal      #单位为lammps 中的metel 类型
dimension                    3          #模拟的维度 三维
boundary                    p p p      #周期边界条件
atom_style                  atomic   #原子类型自动
atom_modify              map array sort 100 2.0
neighbor                    3.0 bin
neigh_modify            every 1 delay 0 check yes
#2 -----global variable-------定义全局变量，方便统一修改；
variable temperature equal 300
variable tstep equal 0.001
variable pressure equal 0
variable thermalstep equal 100
variable dumpstep equal 1000
variable relaxtime equal 0
variable totaltime equal 100000
variable deformrate equal 5e-3
#3 -------model------------
#box tilt large
read_data     1.lmp
Reading data file ...
  orthogonal box = (-100 -100 -2.331251) to (100 100 38.891558)
  3 by 4 by 1 MPI processor grid
  reading atoms ...
  920 atoms
  read_data CPU = 0.005 seconds
replicate 1 1 13
Replication is creating a 1x1x13 = 13 times larger system...
  orthogonal box = (-100 -100 -2.331251) to (100 100 533.56527)
  2 by 2 by 3 MPI processor grid
  11960 atoms
  replicate CPU = 0.001 seconds
write_data l.data
System init for write_data ...
WARNING: Communication cutoff is 0.0. No ghost atoms will be generated. Atoms may get lost. (src/comm_brick.cpp:210)

pair_style hybrid airebo 3.0 airebo 3.0  lj/cut 10
pair_coeff * * airebo 1 CH.airebo C NULL
Reading airebo potential file CH.airebo with DATE: 2011-10-25
pair_coeff * * airebo 2 CH.airebo NULL C
Reading airebo potential file CH.airebo with DATE: 2011-10-25
pair_coeff 1 2 lj/cut 0.00456 3.431

# 5------minimize -----------
min_style      sd
minimize       1.0e-4 1.0e-6 100 1000
Neighbor list info ...
  update: every = 1 steps, delay = 0 steps, check = yes
  max neighbors/atom: 2000, page size: 100000
  master list distance cutoff = 13.2
  ghost atom cutoff = 13.2
  binsize = 6.6, bins = 31 31 82
  5 neighbor lists, perpetual/occasional/extra = 5 0 0
  (1) pair airebo, perpetual, skip from (4)
      attributes: full, newton on, ghost
      pair build: skip/ghost
      stencil: none
      bin: none
  (2) pair airebo, perpetual, skip from (4)
      attributes: full, newton on, ghost
      pair build: skip/ghost
      stencil: none
      bin: none
  (3) pair lj/cut, perpetual, skip from (5)
      attributes: half, newton on, cut 13
      pair build: skip
      stencil: none
      bin: none
  (4) neighbor class addition, perpetual
      attributes: full, newton on, ghost
      pair build: full/bin/ghost
      stencil: full/ghost/bin/3d
      bin: standard
  (5) neighbor class addition, perpetual
      attributes: half, newton on, cut 13
      pair build: half/bin/atomonly/newton
      stencil: half/bin/3d
      bin: standard
Per MPI rank memory allocation (min/avg/max) = 11.91 | 12.39 | 12.68 Mbytes
   Step          Temp          E_pair         E_mol          TotEng         Press     
         0   0             -86715.076      0             -86715.076      322.36972    
         4   0             -86943.492      0             -86943.492      67.774962    
Loop time of 0.172178 on 12 procs for 4 steps with 11960 atoms

98.3% CPU use with 12 MPI tasks x 1 OpenMP threads

Minimization stats:
  Stopping criterion = energy tolerance
  Energy initial, next-to-last, final = 
     -86715.0763569095  -86938.2337585737  -86943.4915351398
  Force two-norm initial, final = 157.31351 23.952712
  Force max component initial, final = 3.4211508 0.48894053
  Final line search alpha, max atom move = 0.14095332 0.068917792
  Iterations, force evaluations = 4 8

MPI task timing breakdown:
Section |  min time  |  avg time  |  max time  |%varavg| %total
---------------------------------------------------------------
Pair    | 0.1517     | 0.16023    | 0.16952    |   1.4 | 93.06
Neigh   | 0          | 0          | 0          |   0.0 |  0.00
Comm    | 0.0018594  | 0.011002   | 0.019383   |   5.2 |  6.39
Output  | 0          | 0          | 0          |   0.0 |  0.00
Modify  | 0          | 0          | 0          |   0.0 |  0.00
Other   |            | 0.0009431  |            |       |  0.55

Nlocal:        996.667 ave        1072 max         922 min
Histogram: 3 0 0 0 2 4 0 0 0 3
Nghost:        3576.67 ave        3656 max        3496 min
Histogram: 3 0 0 0 3 3 0 0 0 3
Neighs:              0 ave           0 max           0 min
Histogram: 12 0 0 0 0 0 0 0 0 0

Total # of neighbors = 0
Ave neighs/atom = 0
Neighbor list builds = 0
Dangerous builds = 0
#6----define computes------
variable nums equal count(all) #计算原子数目
variable toval equal 13.369*13.369*lz #计算系统总体积，单层石墨烯厚度为0.335nm
variable vol equal ${toval} #体系的初始体积
variable vol equal 95780.8707627492 
variable vatom equal v_vol/v_nums #单个原子体积
compute 1 all stress/atom NULL #计算体系中单原子应力
compute xalls all reduce sum c_1[1]
variable xstress equal (c_xalls)/(v_toval*10000)
compute yalls all reduce sum c_1[2]
variable ystress equal (c_yalls)/(v_toval*10000)
compute zalls all reduce sum c_1[3]
variable zstress equal (c_zalls)/(v_toval*10000)
#7---------relaxation-------------------------
timestep ${tstep}
timestep 0.001
#------------5 温度初始化------------------------------
velocity all create 300 4928459 dist gaussian units box
#------------------------------------------------------
dump   1 all atom 100 all-cy.lammpstrj
#fix    1 all npt temp 300 300  0.1 aniso 0 0  drag 1  #三个方向独立控压
fix  s all npt temp ${temperature} ${temperature} 0.1 y ${pressure} ${pressure} 10 x ${pressure} ${pressure} 10
fix  s all npt temp 300 ${temperature} 0.1 y ${pressure} ${pressure} 10 x ${pressure} ${pressure} 10
fix  s all npt temp 300 300 0.1 y ${pressure} ${pressure} 10 x ${pressure} ${pressure} 10
fix  s all npt temp 300 300 0.1 y 0 ${pressure} 10 x ${pressure} ${pressure} 10
fix  s all npt temp 300 300 0.1 y 0 0 10 x ${pressure} ${pressure} 10
fix  s all npt temp 300 300 0.1 y 0 0 10 x 0 ${pressure} 10
fix  s all npt temp 300 300 0.1 y 0 0 10 x 0 0 10
thermo                1000
thermo_modify       lost ignore
compute  2 all pe/atom
compute  pe all reduce sum c_2
variable PE equal "c_pe"
fix    pe all print 100 "${PE} " file PE.txt screen no
thermo  ${thermalstep}
thermo  100
#thermo_style  custom step pe ke etotal lx ly lz
run   ${relaxtime}
run   0
Per MPI rank memory allocation (min/avg/max) = 12.54 | 13.02 | 13.3 Mbytes
   Step          Temp          E_pair         E_mol          TotEng         Press          Volume    
         4   300           -86943.492      0             -86479.745      90.882779      21435861     
Loop time of 4.10641e-05 on 12 procs for 0 steps with 11960 atoms

83.0% CPU use with 12 MPI tasks x 1 OpenMP threads

MPI task timing breakdown:
Section |  min time  |  avg time  |  max time  |%varavg| %total
---------------------------------------------------------------
Pair    | 0          | 0          | 0          |   0.0 |  0.00
Neigh   | 0          | 0          | 0          |   0.0 |  0.00
Comm    | 0          | 0          | 0          |   0.0 |  0.00
Output  | 0          | 0          | 0          |   0.0 |  0.00
Modify  | 0          | 0          | 0          |   0.0 |  0.00
Other   |            | 4.106e-05  |            |       |100.00

Nlocal:        996.667 ave         999 max         994 min
Histogram: 1 0 1 0 3 0 4 0 2 1
Nghost:        3576.67 ave        3584 max        3571 min
Histogram: 3 2 1 2 0 0 0 0 0 4
Neighs:              0 ave           0 max           0 min
Histogram: 12 0 0 0 0 0 0 0 0 0

Total # of neighbors = 0
Ave neighs/atom = 0
Neighbor list builds = 0
Dangerous builds = 0
#8 -------tension-----------------------------
unfix s
undump  1
unfix  pe
reset_timestep 0
fix avestress all ave/atom 1 ${dumpstep} ${dumpstep} c_1[1] c_1[2] c_1[3] c_1[4] c_1[5] c_1[6]
fix avestress all ave/atom 1 1000 ${dumpstep} c_1[1] c_1[2] c_1[3] c_1[4] c_1[5] c_1[6]
fix avestress all ave/atom 1 1000 1000 c_1[1] c_1[2] c_1[3] c_1[4] c_1[5] c_1[6]

#-----calculation of strain and Cumulative compression--------
variable                tmp equal "lz"
variable                L0 equal ${tmp}
variable                L0 equal 535.896517
variable                strain equal "(lz - v_L0)/v_L0"
variable                Cumulativels equal "(lz - v_L0)/10"
fix Step all print 100 "${strain} ${Cumulativels} ${zstress}" file grapoten.txt screen no

dump 2 all custom ${dumpstep} tension.xyz type x y z f_avestress[1] f_avestress[2] f_avestress[3] f_avestress[4] f_avestress[5] f_avestress[6]
dump 2 all custom 1000 tension.xyz type x y z f_avestress[1] f_avestress[2] f_avestress[3] f_avestress[4] f_avestress[5] f_avestress[6]

fix  1 all npt temp ${temperature} ${temperature} 0.1 y ${pressure} ${pressure} 10 x ${pressure} ${pressure} 10
fix  1 all npt temp 300 ${temperature} 0.1 y ${pressure} ${pressure} 10 x ${pressure} ${pressure} 10
fix  1 all npt temp 300 300 0.1 y ${pressure} ${pressure} 10 x ${pressure} ${pressure} 10
fix  1 all npt temp 300 300 0.1 y 0 ${pressure} 10 x ${pressure} ${pressure} 10
fix  1 all npt temp 300 300 0.1 y 0 0 10 x ${pressure} ${pressure} 10
fix  1 all npt temp 300 300 0.1 y 0 0 10 x 0 ${pressure} 10
fix  1 all npt temp 300 300 0.1 y 0 0 10 x 0 0 10

thermo_style custom step pe ke etotal lx ly lz
WARNING: New thermo_style command, previous thermo_modify settings will be lost (src/output.cpp:903)
fix   2 all deform 1 z erate ${deformrate} remap x units box
fix   2 all deform 1 z erate 0.005 remap x units box
fix   3 all ave/time 2 500 1000 v_xstress v_ystress v_zstress file pressure.out
run   ${totaltime}
run   100000
WARNING: Dump 2 includes no atom IDs and is not sorted by ID. This may complicate post-processing tasks or visualization (src/dump.cpp:221)
Per MPI rank memory allocation (min/avg/max) = 14.04 | 14.52 | 14.8 Mbytes
   Step         PotEng         KinEng         TotEng           Lx             Ly             Lz      
         0  -86943.492      463.74662     -86479.745      200            200            535.89652    
       100  -86673.97       227.86075     -86446.109      200.00422      200.00578      536.16447    
       200  -86696.455      295.8585      -86400.596      199.99963      200.00463      536.43241    
       300  -86649.591      303.40568     -86346.186      200.00053      200.01086      536.70036    
       400  -86618.687      331.59551     -86287.092      199.99725      200.01253      536.96831    
       500  -86595.824      370.71069     -86225.113      199.99566      200.01453      537.23626    
       600  -86568.986      405.80748     -86163.178      199.99833      200.01764      537.50421    
       700  -86546.428      441.51036     -86104.917      199.99481      200.01322      537.77215    
       800  -86515.795      461.41908     -86054.376      200.00074      200.01815      538.0401     
       900  -86508.436      489.73519     -86018.701      199.99479      200.01305      538.30805    
      1000  -86492.899      486.78901     -86006.11       199.9975       200.01997      538.576      
      1100  -86494.465      473.61025     -86020.855      199.98909      200.01796      538.84395    
      1200  -86507.544      464.2605      -86043.283      199.98899      200.02457      539.1119     
      1300  -86510.21       457.93596     -86052.274      199.98276      200.02214      539.37984    
      1400  -86495.79       455.09508     -86040.695      199.98408      200.02417      539.64779    
      1500  -86485.933      466.8656      -86019.067      199.98071      200.02027      539.91574    
      1600  -86471.608      465.97569     -86005.633      199.98129      200.02198      540.18369    
      1700  -86479.394      469.16729     -86010.227      199.97513      200.01881      540.45164    
      1800  -86472.146      447.73047     -86024.416      199.97409      200.02358      540.71959    
      1900  -86489.862      457.2233      -86032.639      199.96409      200.02016      540.98753    
      2000  -86475.243      448.62866     -86026.614      199.96448      200.02629      541.25548    
      2100  -86472.204      461.26426     -86010.94       199.95493      200.01925      541.52343    
      2200  -86462.147      465.87733     -85996.27       199.95814      200.0227       541.79138    
      2300  -86466.366      472.2088      -85994.157      199.94964      200.01483      542.05933    
      2400  -86466.322      462.35645     -86003.966      199.95023      200.01699      542.32728    
      2500  -86476.506      463.89113     -86012.615      199.94122      200.01273      542.59522    
      2600  -86472.354      460.91282     -86011.441      199.93695      200.01509      542.86317    
      2700  -86467.888      469.15774     -85998.73       199.92838      200.01322      543.13112    
      2800  -86457.96       473.92942     -85984.03       199.92363      200.01343      543.39907    
      2900  -86454.541      476.71679     -85977.824      199.91758      200.00919      543.66702    
      3000  -86448.728      466.73166     -85981.996      199.91451      200.00696      543.93496    
      3100  -86452.217      463.02041     -85989.197      199.9085       200.00139      544.20291    
      3200  -86448.432      458.85034     -85989.581      199.90395      199.99981      544.47086    
      3300  -86440.522      461.20848     -85979.313      199.89593      199.99611      544.73881    
      3400  -86433.075      467.41205     -85965.663      199.88957      199.99536      545.00676    
      3500  -86420.885      465.05689     -85955.828      199.88073      199.99227      545.27471    
      3600  -86422.207      466.2967      -85955.91       199.87371      199.99038      545.54265    
      3700  -86415.69       454.19676     -85961.493      199.8667       199.98589      545.8106     
      3800  -86425.41       460.98002     -85964.43       199.86058      199.98064      546.07855    
      3900  -86414.325      455.85489     -85958.47       199.85462      199.9757       546.3465     
      4000  -86407.262      463.42249     -85943.839      199.84712      199.97096      546.61445    
      4100  -86396.622      464.99402     -85931.628      199.83834      199.96726      546.8824     
      4200  -86395.529      467.72182     -85927.807      199.82946      199.96377      547.15034    
      4300  -86397.271      466.4088      -85930.862      199.81978      199.95899      547.41829    
      4400  -86393.366      459.71814     -85933.648      199.81134      199.95449      547.68624    
      4500  -86385.73       456.62234     -85929.108      199.80182      199.94771      547.95419    
      4600  -86379.993      462.48021     -85917.513      199.79427      199.94238      548.22214    
      4700  -86375.685      470.46677     -85905.219      199.78377      199.93444      548.49009    
      4800  -86370.476      471.80897     -85898.667      199.7754       199.92961      548.75803    
      4900  -86367.579      467.60268     -85899.976      199.76339      199.92175      549.02598    
      5000  -86363.421      461.43761     -85901.983      199.754        199.91689      549.29393    
      5100  -86362.841      463.99053     -85898.851      199.74134      199.90837      549.56188    
      5200  -86355.833      467.55061     -85888.282      199.73279      199.90307      549.82983    
      5300  -86341.485      466.25268     -85875.232      199.71999      199.89274      550.09777    
      5400  -86328.068      463.10096     -85864.967      199.71146      199.88738      550.36572    
      5500  -86326.209      463.78015     -85862.429      199.69728      199.87676      550.63367    
      5600  -86317.98       453.996       -85863.984      199.6875       199.8717       550.90162    
      5700  -86326.251      463.40399     -85862.847      199.67216      199.86156      551.16957    
      5800  -86311.546      456.48539     -85855.061      199.66171      199.85591      551.43752    
      5900  -86307.124      464.6         -85842.524      199.64665      199.84466      551.70546    
      6000  -86295.413      465.03569     -85830.377      199.63714      199.8372       551.97341    
      6100  -86290.972      467.45225     -85823.52       199.6223       199.82456      552.24136    
      6200  -86280.76       457.889       -85822.871      199.61096      199.8173       552.50931    
      6300  -86283.893      461.72297     -85822.17       199.59371      199.80618      552.77726    
      6400  -86270.634      454.6453      -85815.989      199.58016      199.79943      553.04521    
      6500  -86266.003      461.60596     -85804.397      199.56291      199.78754      553.31315    
      6600  -86253.356      462.32082     -85791.035      199.55021      199.77801      553.5811     
      6700  -86254.03       471.05783     -85782.972      199.53403      199.76423      553.84905    
      6800  -86248.088      467.6714      -85780.417      199.52076      199.75293      554.117      
      6900  -86241.141      461.86466     -85779.277      199.50376      199.73898      554.38495    
      7000  -86238.737      464.64183     -85774.095      199.48843      199.72767      554.6529     
      7100  -86228.214      464.44353     -85763.771      199.46973      199.71444      554.92084    
      7200  -86218.284      467.94087     -85750.343      199.45259      199.70333      555.18879    
      7300  -86205.698      465.87517     -85739.823      199.43346      199.68941      555.45674    
      7400  -86200.907      466.35291     -85734.554      199.41623      199.67649      555.72469    
      7500  -86195.825      463.91995     -85731.905      199.39735      199.66116      555.99264    
      7600  -86193.102      464.66406     -85728.438      199.37949      199.64651      556.26058    
      7700  -86180.298      460.19491     -85720.103      199.3606       199.63075      556.52853    
      7800  -86173.546      466.16298     -85707.383      199.34111      199.61533      556.79648    
      7900  -86160.512      464.73334     -85695.779      199.32049      199.60046      557.06443    
      8000  -86156.803      469.06748     -85687.735      199.29903      199.58534      557.33238    
      8100  -86146.144      462.98474     -85683.16       199.27778      199.56976      557.60033    
      8200  -86141.466      462.45225     -85679.013      199.25661      199.55267      557.86827    
      8300  -86131.23       459.68636     -85671.544      199.2363       199.5351       558.13622    
      8400  -86118.472      459.26573     -85659.206      199.21458      199.51667      558.40417    
      8500  -86108.914      462.54515     -85646.369      199.19243      199.49954      558.67212    
      8600  -86102.761      465.96463     -85636.796      199.16829      199.48219      558.94007    
      8700  -86090.997      460.47863     -85630.518      199.14463      199.46489      559.20802    
      8800  -86089.28       464.34984     -85624.93       199.12061      199.44556      559.47596    
      8900  -86074.945      458.59033     -85616.355      199.09696      199.42655      559.74391    
      9000  -86070.27       466.14736     -85604.122      199.07225      199.40632      560.01186    
      9100  -86054.451      463.25233     -85591.199      199.04668      199.3866       560.27981    
      9200  -86051.08       469.61782     -85581.462      199.0203       199.36699      560.54776    
      9300  -86039.113      463.86046     -85575.253      198.99339      199.34626      560.81571    
      9400  -86034.321      464.35007     -85569.971      198.96675      199.32512      561.08365    
      9500  -86024.198      461.83745     -85562.36       198.93956      199.3027       561.3516     
      9600  -86013.666      462.90803     -85550.758      198.91272      199.28049      561.61955    
      9700  -86005.853      468.97821     -85536.875      198.88379      199.25734      561.8875     
      9800  -85992.479      467.87983     -85524.599      198.85484      199.2364       562.15545    
      9900  -85980.067      464.07321     -85515.994      198.82361      199.21372      562.42339    
     10000  -85970.299      459.68382     -85510.615      198.79397      199.19155      562.69134    
     10100  -85962.507      458.22185     -85504.285      198.7629       199.16695      562.95929    
     10200  -85954.492      459.74107     -85494.751      198.73393      199.14273      563.22724    
     10300  -85944.493      464.21685     -85480.276      198.70344      199.11658      563.49519    
     10400  -85933.541      467.96424     -85465.576      198.67291      199.09105      563.76314    
     10500  -85916.819      462.40323     -85454.416      198.64091      199.06554      564.03108    
     10600  -85908.033      460.18564     -85447.848      198.60755      199.04119      564.29903    
     10700  -85903.534      462.27411     -85441.26       198.57219      199.01672      564.56698    
     10800  -85887.247      456.46961     -85430.778      198.53781      198.99189      564.83493    
     10900  -85878.714      463.47454     -85415.239      198.50359      198.96456      565.10288    
     11000  -85865.245      466.02291     -85399.222      198.4706       198.93597      565.37083    
     11100  -85855.783      466.54525     -85389.238      198.43652      198.90682      565.63877    
     11200  -85848.178      464.19282     -85383.985      198.40174      198.87853      565.90672    
     11300  -85839.235      460.75249     -85378.482      198.36455      198.84979      566.17467    
     11400  -85825.47       459.66201     -85365.808      198.32752      198.82227      566.44262    
     11500  -85815.505      464.51618     -85350.989      198.28958      198.79338      566.71057    
     11600  -85799.967      461.92257     -85338.045      198.25249      198.76363      566.97851    
     11700  -85790.026      464.0018      -85326.024      198.21484      198.73298      567.24646    
     11800  -85778.537      465.21196     -85313.325      198.17706      198.70308      567.51441    
     11900  -85767.958      470.22196     -85297.736      198.13814      198.67192      567.78236    
     12000  -85750.601      466.79521     -85283.806      198.09991      198.64099      568.05031    
     12100  -85745.821      467.44601     -85278.375      198.06125      198.60881      568.31826    
     12200  -85732.074      459.64609     -85272.428      198.02245      198.57707      568.5862     
     12300  -85722.106      461.59514     -85260.511      197.98268      198.54528      568.85415    
     12400  -85708.052      463.85102     -85244.201      197.94218      198.51405      569.1221     
     12500  -85692.698      467.6693      -85225.028      197.90144      198.48257      569.39005    
     12600  -85676.804      468.48011     -85208.324      197.86112      198.45052      569.658      
     12700  -85670.497      466.84189     -85203.655      197.82139      198.41736      569.92595    
     12800  -85660.331      461.3673      -85198.964      197.78222      198.38339      570.19389    
     12900  -85653.768      465.18062     -85188.588      197.74198      198.35023      570.46184    
     13000  -85637.41       466.09124     -85171.319      197.70009      198.31821      570.72979    
     13100  -85619.284      466.45768     -85152.827      197.65802      198.28664      570.99774    
     13200  -85609.667      469.43489     -85140.232      197.61651      198.25376      571.26569    
     13300  -85590.339      457.43598     -85132.903      197.57623      198.21957      571.53364    
     13400  -85585.445      462.18743     -85123.257      197.5363       198.18453      571.80158    
     13500  -85571.513      461.78843     -85109.725      197.49632      198.14994      572.06953    
     13600  -85564.634      469.95122     -85094.683      197.45552      198.11619      572.33748    
     13700  -85544.755      464.65548     -85080.1        197.41348      198.08301      572.60543    
     13800  -85530.752      463.78285     -85066.969      197.37193      198.05025      572.87338    
     13900  -85517.037      459.85016     -85057.187      197.33111      198.01676      573.14132    
     14000  -85514.592      464.37387     -85050.219      197.29132      197.98215      573.40927    
     14100  -85492.934      454.8782      -85038.056      197.25198      197.94823      573.67722    
     14200  -85480.853      463.97447     -85016.879      197.21125      197.91525      573.94517    
     14300  -85463.851      464.31056     -84999.54       197.17144      197.88335      574.21312    
     14400  -85453.722      465.50017     -84988.221      197.132        197.84957      574.48107    
     14500  -85439.979      461.45168     -84978.528      197.09471      197.81577      574.74901    
     14600  -85426.412      456.96583     -84969.446      197.0568       197.7823       575.01696    
     14700  -85420.417      461.65208     -84958.765      197.0186       197.75056      575.28491    
     14800  -85397.243      457.9999      -84939.243      196.9788       197.71985      575.55286    
     14900  -85383.023      464.80095     -84918.222      196.93986      197.69038      575.82081    
     15000  -85369.485      466.64794     -84902.838      196.90193      197.6594       576.08876    
     15100  -85354.818      463.35809     -84891.46       196.86605      197.62771      576.3567     
     15200  -85350.902      466.3949      -84884.507      196.83091      197.59515      576.62465    
     15300  -85331.88       460.44205     -84871.438      196.7964       197.56366      576.8926     
     15400  -85317.822      468.77263     -84849.05       196.76157      197.53314      577.16055    
     15500  -85294.522      462.63332     -84831.889      196.72607      197.50359      577.4285     
     15600  -85286.495      466.51992     -84819.975      196.69082      197.47525      577.69645    
     15700  -85273.109      462.59075     -84810.519      196.6561       197.44721      577.96439    
     15800  -85256.652      457.52915     -84799.123      196.62215      197.41958      578.23234    
     15900  -85241.11       458.18518     -84782.925      196.58881      197.39202      578.50029    
     16000  -85231.443      472.78927     -84758.654      196.55689      197.36487      578.76824    
     16100  -85215.944      473.4923      -84742.451      196.52561      197.33731      579.03619    
     16200  -85200.057      466.73864     -84733.318      196.49554      197.31056      579.30413    
     16300  -85186.001      463.52579     -84722.475      196.46485      197.28429      579.57208    
     16400  -85169.34       462.13289     -84707.207      196.43474      197.2596       579.84003    
     16500  -85151.76       460.8448      -84690.915      196.40467      197.2352       580.10798    
     16600  -85137.382      462.85712     -84674.525      196.37567      197.21112      580.37593    
     16700  -85120.525      461.38411     -84659.141      196.34725      197.18715      580.64388    
     16800  -85109.978      466.51815     -84643.46       196.3193       197.16399      580.91182    
     16900  -85089.08       461.80519     -84627.274      196.29136      197.1416       581.17977    
     17000  -85074.296      465.16935     -84609.127      196.26412      197.11949      581.44772    
     17100  -85054.55       466.56144     -84587.989      196.23831      197.09694      581.71567    
     17200  -85035.128      463.1666      -84571.962      196.2133       197.07414      581.98362    
     17300  -85030.476      465.86337     -84564.613      196.18858      197.05173      582.25157    
     17400  -85013.144      460.55008     -84552.594      196.16349      197.03086      582.51951    
     17500  -85001.51       465.45772     -84536.052      196.13796      197.0108       582.78746    
     17600  -84982.449      465.84334     -84516.606      196.11351      196.99133      583.05541    
     17700  -84958.28       465.23319     -84493.046      196.08954      196.9712       583.32336    
     17800  -84941.171      467.51821     -84473.653      196.06726      196.95116      583.59131    
     17900  -84934.105      466.35458     -84467.75       196.04536      196.93058      583.85926    
     18000  -84922.11       467.00873     -84455.101      196.02375      196.91153      584.1272     
     18100  -84900.368      459.58092     -84440.787      196.00106      196.89385      584.39515    
     18200  -84889.033      464.69277     -84424.341      195.9787       196.87711      584.6631     
     18300  -84866.858      462.07396     -84404.784      195.95734      196.85964      584.93105    
     18400  -84849.807      465.95072     -84383.856      195.93822      196.84133      585.199      
     18500  -84832.121      467.17922     -84364.942      195.9195       196.82245      585.46694    
     18600  -84818.489      464.42549     -84354.063      195.90088      196.80513      585.73489    
     18700  -84805.061      460.39072     -84344.67       195.88079      196.78871      586.00284    
     18800  -84791.847      463.95182     -84327.895      195.86069      196.77367      586.27079    
     18900  -84770.678      464.70962     -84305.969      195.84101      196.75824      586.53874    
     19000  -84755.842      472.49715     -84283.344      195.82216      196.74298      586.80669    
     19100  -84729.868      463.34008     -84266.528      195.80372      196.72689      587.07463    
     19200  -84712.225      460.44542     -84251.779      195.78632      196.71076      587.34258    
     19300  -84702.233      463.73543     -84238.498      195.76906      196.69473      587.61053    
     19400  -84687.799      463.61045     -84224.188      195.75144      196.67924      587.87848    
     19500  -84671.139      460.28601     -84210.853      195.73417      196.66412      588.14643    
     19600  -84659.202      461.35925     -84197.843      195.71745      196.64831      588.41438    
     19700  -84636.396      459.70432     -84176.692      195.70179      196.63299      588.68232    
     19800  -84613.16       461.24154     -84151.919      195.68524      196.61784      588.95027    
     19900  -84601.709      468.58283     -84133.127      195.66893      196.60419      589.21822    
     20000  -84581.28       462.74308     -84118.537      195.65151      196.58989      589.48617    
     20100  -84568.422      461.22314     -84107.199      195.63572      196.57709      589.75412    
     20200  -84552.65       457.298       -84095.352      195.61906      196.56253      590.02207    
     20300  -84528.282      456.93711     -84071.345      195.60492      196.54839      590.29001    
     20400  -84513.838      467.48739     -84046.351      195.59002      196.53254      590.55796    
     20500  -84491.423      463.17949     -84028.243      195.57611      196.51842      590.82591    
     20600  -84477.89       465.06114     -84012.829      195.56027      196.50414      591.09386    
     20700  -84461.93       462.89714     -83999.033      195.5449       196.49127      591.36181    
     20800  -84445.702      460.48981     -83985.212      195.52903      196.47726      591.62975    
     20900  -84425.298      459.74817     -83965.55       195.51491      196.4639       591.8977     
     21000  -84405.889      467.30228     -83938.587      195.49982      196.44944      592.16565    
     21100  -84388.849      469.67802     -83919.171      195.48524      196.43718      592.4336     
     21200  -84367.948      463.20235     -83904.746      195.46855      196.424        592.70155    
     21300  -84352.867      459.79098     -83893.076      195.45459      196.41214      592.9695     
     21400  -84337.876      460.35291     -83877.523      195.44001      196.39697      593.23744    
     21500  -84310.237      461.72994     -83848.507      195.42793      196.38348      593.50539    
     21600  -84291.807      465.04014     -83826.767      195.41369      196.36863      593.77334    
     21700  -84279.969      467.69485     -83812.274      195.40041      196.35602      594.04129    
     21800  -84265.473      465.6805      -83799.792      195.38517      196.34349      594.30924    
     21900  -84245.225      462.36289     -83782.862      195.37037      196.33221      594.57719    
     22000  -84217.104      459.70047     -83757.403      195.35593      196.3199       594.84513    
     22100  -84201.867      468.92376     -83732.943      195.34276      196.30685      595.11308    
     22200  -84183.428      467.09069     -83716.337      195.32975      196.29351      595.38103    
     22300  -84165.65       463.48471     -83702.165      195.31564      196.28139      595.64898    
     22400  -84150.927      464.10812     -83686.818      195.29994      196.27069      595.91693    
     22500  -84128.676      461.98726     -83666.689      195.28464      196.25964      596.18488    
     22600  -84104.967      465.83869     -83639.129      195.27122      196.24702      596.45282    
     22700  -84081.941      463.78165     -83618.16       195.25907      196.23235      596.72077    
     22800  -84066.95       462.4281      -83604.522      195.24709      196.21797      596.98872    
     22900  -84054.721      463.50691     -83591.214      195.2331       196.20458      597.25667    
     23000  -84034.221      462.63357     -83571.587      195.21804      196.19354      597.52462    
     23100  -84016.945      467.09853     -83549.846      195.20174      196.18257      597.79256    
     23200  -83995.594      467.04264     -83528.552      195.18631      196.17143      598.06051    
     23300  -83973.474      464.32014     -83509.154      195.17249      196.15814      598.32846    
     23400  -83954.736      461.64736     -83493.088      195.15947      196.14386      598.59641    
     23500  -83941.794      461.42539     -83480.368      195.14624      196.13052      598.86436    
     23600  -83918.592      458.95682     -83459.635      195.13108      196.11791      599.13231    
     23700  -83894.686      461.45059     -83433.235      195.11677      196.10619      599.40025    
     23800  -83877.21       466.80056     -83410.409      195.10227      196.09263      599.6682     
     23900  -83857.318      465.8539      -83391.464      195.09004      196.07921      599.93615    
     24000  -83840.51       462.77905     -83377.731      195.07628      196.06409      600.2041     
     24100  -83823.707      458.41874     -83365.288      195.06243      196.05192      600.47205    
     24200  -83800.254      458.65409     -83341.599      195.04523      196.04002      600.74       
     24300  -83780.601      464.05106     -83316.55       195.0293       196.02961      601.00794    
     24400  -83758.282      464.01544     -83294.266      195.01336      196.01572      601.27589    
     24500  -83733.968      461.52288     -83272.445      195.00076      196.00151      601.54384    
     24600  -83713.665      463.89104     -83249.774      194.98676      195.9855       601.81179    
     24700  -83692.851      464.56275     -83228.288      194.97202      195.97248      602.07974    
     24800  -83677.906      464.73682     -83213.169      194.95478      195.95934      602.34769    
     24900  -83658.332      458.69767     -83199.635      194.93988      195.94657      602.61563    
     25000  -83639.858      460.42621     -83179.432      194.92517      195.93023      602.88358    
     25100  -83611.433      458.93838     -83152.494      194.91289      195.91474      603.15153    
     25200  -83589.21       461.49992     -83127.71       194.89795      195.89856      603.41948    
     25300  -83573.454      464.32168     -83109.132      194.88171      195.88616      603.68743    
     25400  -83555.317      462.7385      -83092.578      194.8626       195.87382      603.95537    
     25500  -83533.87       458.03958     -83075.831      194.84539      195.86174      604.22332    
     25600  -83520.697      462.84416     -83057.852      194.82914      195.84603      604.49127    
     25700  -83495.108      459.64949     -83035.458      194.81565      195.82989      604.75922    
     25800  -83469.764      462.009       -83007.755      194.80115      195.81235      605.02717    
     25900  -83451.889      467.96271     -82983.927      194.78659      195.79629      605.29512    
     26000  -83431.789      465.83938     -82965.95       194.77003      195.78004      605.56306    
     26100  -83413.486      460.59055     -82952.895      194.75357      195.76528      605.83101    
     26200  -83397.708      462.38449     -82935.324      194.73581      195.74956      606.09896    
     26300  -83369.797      459.46612     -82910.331      194.71945      195.73413      606.36691    
     26400  -83348.055      461.03136     -82887.024      194.70213      195.71779      606.63486    
     26500  -83328.084      463.67173     -82864.412      194.68496      195.70234      606.90281    
     26600  -83302.222      460.85277     -82841.37       194.66736      195.6862       607.17075    
     26700  -83285.686      466.42191     -82819.264      194.6508       195.66975      607.4387     
     26800  -83268.671      468.34054     -82800.331      194.63419      195.65203      607.70665    
     26900  -83248.281      462.25109     -82786.03       194.61777      195.63503      607.9746     
     27000  -83227.229      459.50226     -82767.727      194.59979      195.61845      608.24255    
     27100  -83203.619      463.13043     -82740.489      194.58212      195.60296      608.5105     
     27200  -83180.285      467.20786     -82713.077      194.56423      195.58603      608.77844    
     27300  -83158.12       464.6813      -82693.439      194.54782      195.56903      609.04639    
     27400  -83145.723      470.03105     -82675.692      194.53109      195.55069      609.31434    
     27500  -83120.184      461.33767     -82658.847      194.51395      195.53384      609.58229    
     27600  -83096.464      457.28972     -82639.174      194.49499      195.51775      609.85024    
     27700  -83074.639      464.35265     -82610.286      194.47525      195.50332      610.11818    
     27800  -83046.516      463.15373     -82583.363      194.4552       195.48787      610.38613    
     27900  -83030.277      468.19937     -82562.078      194.43689      195.47139      610.65408    
     28000  -83009.233      464.23108     -82545.002      194.4194       195.45269      610.92203    
     28100  -82990.462      460.10072     -82530.361      194.40291      195.43414      611.18998    
     28200  -82963.092      455.10747     -82507.984      194.38526      195.41453      611.45793    
     28300  -82942.104      466.38491     -82475.719      194.36776      195.39641      611.72587    
     28400  -82918.126      464.58582     -82453.54       194.34819      195.37844      611.99382    
     28500  -82898.856      463.53979     -82435.316      194.32842      195.36261      612.26177    
     28600  -82883.278      464.27954     -82418.998      194.3069       195.34551      612.52972    
     28700  -82855.506      455.87268     -82399.633      194.28745      195.3295       612.79767    
     28800  -82833.947      463.36693     -82370.581      194.26754      195.31045      613.06562    
     28900  -82809.754      467.03004     -82342.724      194.25003      195.29206      613.33356    
     29000  -82789.144      466.08518     -82323.058      194.23075      195.27272      613.60151    
     29100  -82767.451      461.87801     -82305.573      194.21141      195.25491      613.86946    
     29200  -82745.431      457.50593     -82287.925      194.19161      195.23603      614.13741    
     29300  -82726.82       459.12375     -82267.697      194.17273      195.21698      614.40536    
     29400  -82703.02       464.87527     -82238.145      194.15334      195.1974       614.6733     
     29500  -82680.463      469.96728     -82210.496      194.13336      195.17881      614.94125    
     29600  -82650.78       463.1303      -82187.65       194.11218      195.16034      615.2092     
     29700  -82630.552      459.70173     -82170.85       194.09114      195.14218      615.47715    
     29800  -82612.159      457.49425     -82154.664      194.07018      195.12277      615.7451     
     29900  -82593.345      462.01298     -82131.332      194.05079      195.10289      616.01305    
     30000  -82565.391      461.2873      -82104.104      194.03016      195.08244      616.28099    
     30100  -82549.857      469.48229     -82080.375      194.00896      195.06409      616.54894    
     30200  -82519.65       462.87117     -82056.779      193.98604      195.04526      616.81689    
     30300  -82496.328      462.49761     -82033.831      193.96538      195.02646      617.08484    
     30400  -82473.445      464.17349     -82009.272      193.94534      195.00392      617.35279    
     30500  -82452.782      469.32709     -81983.455      193.92772      194.98153      617.62074    
     30600  -82423.61       463.70703     -81959.903      193.90692      194.95913      617.88868    
     30700  -82408.234      464.51238     -81943.722      193.88506      194.94072      618.15663    
     30800  -82385.734      458.64985     -81927.084      193.86035      194.92144      618.42458    
     30900  -82368.295      464.81253     -81903.482      193.83857      194.90289      618.69253    
     31000  -82333.345      458.25536     -81875.09       193.81604      194.88078      618.96048    
     31100  -82313.959      465.11166     -81848.847      193.79543      194.86039      619.22843    
     31200  -82292.051      465.23069     -81826.82       193.77219      194.83871      619.49637    
     31300  -82267.148      460.33144     -81806.817      193.75034      194.81886      619.76432    
     31400  -82246.351      460.27346     -81786.078      193.72772      194.79624      620.03227    
     31500  -82221.09       457.79937     -81763.29       193.70815      194.77327      620.30022    
     31600  -82203.506      468.71985     -81734.786      193.68766      194.74843      620.56817    
     31700  -82173.796      466.36818     -81707.428      193.66635      194.72646      620.83611    
     31800  -82151.336      465.90385     -81685.432      193.64186      194.70618      621.10406    
     31900  -82133.78       462.34275     -81671.438      193.61701      194.68645      621.37201    
     32000  -82107.596      456.55509     -81651.041      193.59387      194.66499      621.63996    
     32100  -82088.358      463.73076     -81624.628      193.57228      194.64171      621.90791    
     32200  -82065.699      468.29958     -81597.4        193.55065      194.61924      622.17586    
     32300  -82038.885      466.54311     -81572.342      193.52679      194.59768      622.4438     
     32400  -82016.824      466.22824     -81550.595      193.50299      194.57779      622.71175    
     32500  -81996.463      467.6322      -81528.831      193.47925      194.55578      622.9797     
     32600  -81963.45       457.69182     -81505.758      193.45879      194.53296      623.24765    
     32700  -81948.252      466.38382     -81481.868      193.43738      194.5083       623.5156     
     32800  -81919.81       463.33213     -81456.478      193.4161       194.48677      623.78355    
     32900  -81897.836      470.74315     -81427.092      193.39103      194.46477      624.05149    
     33000  -81866.508      466.09993     -81400.408      193.36762      194.44625      624.31944    
     33100  -81847.332      463.71219     -81383.62       193.34139      194.42438      624.58739    
     33200  -81830.382      462.9706      -81367.412      193.31965      194.40388      624.85534    
     33300  -81803.915      460.70029     -81343.215      193.29597      194.37921      625.12329    
     33400  -81776.796      462.19676     -81314.599      193.27525      194.35794      625.39124    
     33500  -81751.447      465.24463     -81286.202      193.2504       194.33446      625.65918    
     33600  -81729.193      465.77605     -81263.417      193.2279       194.31459      625.92713    
     33700  -81703.491      460.32163     -81243.169      193.2028       194.29162      626.19508    
     33800  -81682.946      462.27233     -81220.674      193.18136      194.27042      626.46303    
     33900  -81659.021      462.649       -81196.372      193.15848      194.24597      626.73098    
     34000  -81633.51       462.413       -81171.097      193.13746      194.22356      626.99892    
     34100  -81611.533      468.0732      -81143.46       193.1137       194.20094      627.26687    
     34200  -81582.503      467.58539     -81114.917      193.0894       194.18079      627.53482    
     34300  -81561.783      467.7297      -81094.053      193.06427      194.16037      627.80277    
     34400  -81538.313      459.0718      -81079.242      193.04009      194.13902      628.07072    
     34500  -81515.812      459.67585     -81056.136      193.01723      194.11692      628.33867    
     34600  -81492.635      464.42213     -81028.212      192.9945       194.0934       628.60661    
     34700  -81460.929      462.23032     -80998.699      192.97251      194.07148      628.87456    
     34800  -81438.572      464.98339     -80973.589      192.94826      194.04834      629.14251    
     34900  -81419.036      467.32027     -80951.715      192.92633      194.02666      629.41046    
     35000  -81392.924      463.56204     -80929.362      192.90337      194.00218      629.67841    
     35100  -81367.182      459.73348     -80907.449      192.88231      193.97954      629.94636    
     35200  -81344.425      459.4815      -80884.944      192.85801      193.95653      630.2143     
     35300  -81321.093      461.08958     -80860.004      192.83401      193.93669      630.48225    
     35400  -81297.533      466.82481     -80830.708      192.80802      193.91629      630.7502     
     35500  -81270.159      467.03778     -80803.121      192.7833       193.89647      631.01815    
     35600  -81246.212      464.36386     -80781.848      192.76018      193.87371      631.2861     
     35700  -81227.569      460.95882     -80766.61       192.73927      193.84947      631.55405    
     35800  -81203.072      460.49575     -80742.576      192.71875      193.825        631.82199    
     35900  -81178.7        464.83936     -80713.861      192.69619      193.80163      632.08994    
     36000  -81147.837      461.36075     -80686.477      192.67309      193.78069      632.35789    
     36100  -81126.021      464.946       -80661.075      192.64829      193.75888      632.62584    
     36200  -81104.093      467.74379     -80636.349      192.62575      193.73774      632.89379    
     36300  -81078.452      466.34674     -80612.105      192.60274      193.71362      633.16173    
     36400  -81055.461      464.40855     -80591.052      192.58168      193.69118      633.42968    
     36500  -81027.096      457.4837      -80569.612      192.55783      193.66822      633.69763    
     36600  -81004.257      461.66223     -80542.595      192.53464      193.6477       633.96558    
     36700  -80979.139      467.46518     -80511.673      192.51052      193.62588      634.23353    
     36800  -80945.854      461.38785     -80484.466      192.48828      193.60386      634.50148    
     36900  -80927.503      464.40474     -80463.098      192.46684      193.58007      634.76942    
     37000  -80908.346      460.6589      -80447.687      192.44564      193.55661      635.03737    
     37100  -80879.35       456.57593     -80422.774      192.42339      193.53467      635.30532    
     37200  -80856.622      462.34202     -80394.28       192.39999      193.51322      635.57327    
     37300  -80826.901      461.74944     -80365.152      192.37835      193.49175      635.84122    
     37400  -80806.004      466.96368     -80339.04       192.35686      193.46871      636.10917    
     37500  -80781.728      462.41216     -80319.316      192.33615      193.44676      636.37711    
     37600  -80758.416      456.18503     -80302.231      192.31358      193.42535      636.64506    
     37700  -80731.928      457.82604     -80274.102      192.29117      193.40604      636.91301    
     37800  -80702.385      459.05059     -80243.335      192.2679       193.3855       637.18096    
     37900  -80679.312      462.6472      -80216.665      192.24681      193.36555      637.44891    
     38000  -80654.757      463.74301     -80191.014      192.22502      193.34338      637.71686    
     38100  -80629.258      463.44697     -80165.811      192.20473      193.32309      637.9848     
     38200  -80605.962      463.5161      -80142.446      192.18246      193.30195      638.25275    
     38300  -80580.209      460.04092     -80120.168      192.16158      193.28221      638.5207     
     38400  -80558.412      462.81309     -80095.599      192.14059      193.26047      638.78865    
     38500  -80530.867      465.37989     -80065.487      192.12107      193.23937      639.0566     
     38600  -80504.479      468.98258     -80035.497      192.10086      193.2179       639.32454    
     38700  -80473.813      461.75693     -80012.056      192.08032      193.19776      639.59249    
     38800  -80458.464      460.70096     -79997.763      192.05809      193.17869      639.86044    
     38900  -80430.738      457.44989     -79973.288      192.0362       193.1606       640.12839    
     39000  -80407.568      465.254       -79942.314      192.0145       193.1418       640.39634    
     39100  -80378.639      465.46591     -79913.173      191.99373      193.12225      640.66429    
     39200  -80350.892      463.78415     -79887.108      191.97416      193.10228      640.93223    
     39300  -80322.021      459.72325     -79862.298      191.95436      193.08169      641.20018    
     39400  -80304.192      461.0023      -79843.19       191.9349       193.0617       641.46813    
     39500  -80284.526      462.62377     -79821.902      191.91486      193.04206      641.73608    
     39600  -80255.102      463.5416      -79791.56       191.89485      193.02256      642.00403    
     39700  -80227.654      467.509       -79760.145      191.87501      193.00341      642.27198    
     39800  -80198.075      464.02516     -79734.05       191.85492      192.98406      642.53992    
     39900  -80172.443      461.98308     -79710.46       191.83501      192.96491      642.80787    
     40000  -80151.965      461.36083     -79690.604      191.81507      192.94612      643.07582    
     40100  -80130.438      457.34145     -79673.096      191.795        192.92716      643.34377    
     40200  -80102.501      457.8028      -79644.698      191.77557      192.90858      643.61172    
     40300  -80074.109      463.34814     -79610.761      191.7559       192.88938      643.87967    
     40400  -80042.997      460.32487     -79582.672      191.73695      192.87082      644.14761    
     40500  -80020.463      465.19354     -79555.27       191.71697      192.85178      644.41556    
     40600  -79991.099      462.27858     -79528.82       191.69828      192.83406      644.68351    
     40700  -79972.693      467.87303     -79504.82       191.67876      192.814        644.95146    
     40800  -79945.845      460.90029     -79484.945      191.66131      192.7953       645.21941    
     40900  -79922.158      459.73658     -79462.422      191.64234      192.77525      645.48735    
     41000  -79893.999      462.35978     -79431.639      191.62436      192.75736      645.7553     
     41100  -79868.438      469.60877     -79398.829      191.60387      192.73837      646.02325    
     41200  -79841.449      466.90021     -79374.549      191.5849       192.72206      646.2912     
     41300  -79818.084      464.10753     -79353.977      191.56382      192.70354      646.55915    
     41400  -79795.42       462.52458     -79332.895      191.54658      192.68611      646.8271     
     41500  -79768.152      461.60169     -79306.551      191.52801      192.66488      647.09504    
     41600  -79734.657      463.79725     -79270.86       191.5127       192.64646      647.36299    
     41700  -79710.936      467.7582      -79243.178      191.49324      192.6258       647.63094    
     41800  -79688.138      465.41744     -79222.72       191.47594      192.60946      647.89889    
     41900  -79667.686      465.13876     -79202.547      191.45518      192.5906       648.16684    
     42000  -79637.419      460.8651      -79176.554      191.43802      192.57402      648.43479    
     42100  -79613.35       466.36983     -79146.98       191.41949      192.55371      648.70273    
     42200  -79578.909      464.44161     -79114.467      191.40348      192.53599      648.97068    
     42300  -79554.747      475.69494     -79079.052      191.38439      192.51731      649.23863    
     42400  -79529.207      470.52207     -79058.685      191.36594      192.502        649.50658    
     42500  -79505.153      465.75273     -79039.4        191.34595      192.48519      649.77453    
     42600  -79483.209      462.96734     -79020.241      191.32846      192.46868      650.04248    
     42700  -79457.471      460.31385     -78997.157      191.31177      192.45022      650.31042    
     42800  -79425.902      457.21391     -78968.688      191.29567      192.43124      650.57837    
     42900  -79401.593      466.41743     -78935.176      191.28008      192.41369      650.84632    
     43000  -79375.037      467.38425     -78907.653      191.26213      192.39581      651.11427    
     43100  -79348.098      463.33573     -78884.762      191.24526      192.38049      651.38222    
     43200  -79325.616      464.13895     -78861.477      191.22588      192.3635       651.65016    
     43300  -79300.64       462.99601     -78837.644      191.20866      192.34927      651.91811    
     43400  -79278.199      463.75895     -78814.44       191.18965      192.33233      652.18606    
     43500  -79253.694      460.86908     -78792.825      191.17335      192.31709      652.45401    
     43600  -79230.246      461.18746     -78769.058      191.15556      192.29967      652.72196    
     43700  -79197.027      461.53041     -78735.496      191.13998      192.28354      652.98991    
     43800  -79172.001      467.40938     -78704.591      191.12342      192.26635      653.25785    
     43900  -79143.051      464.79823     -78678.253      191.10686      192.24968      653.5258     
     44000  -79111.919      455.16554     -78656.754      191.09028      192.23423      653.79375    
     44100  -79099.716      462.0414      -78637.675      191.07241      192.21819      654.0617     
     44200  -79069.867      459.94179     -78609.925      191.05575      192.20364      654.32965    
     44300  -79034.283      460.98985     -78573.293      191.03819      192.18706      654.5976     
     44400  -79009.486      462.2971      -78547.189      191.02323      192.17092      654.86554    
     44500  -78988.645      463.27007     -78525.375      191.00711      192.15342      655.13349    
     44600  -78963.543      460.28401     -78503.259      190.99109      192.13795      655.40144    
     44700  -78939.741      463.61168     -78476.13       190.97303      192.12321      655.66939    
     44800  -78904.18       462.76785     -78441.412      190.9553       192.10843      655.93734    
     44900  -78879.011      466.15829     -78412.852      190.93931      192.09285      656.20529    
     45000  -78854.082      463.4007      -78390.681      190.92357      192.07539      656.47323    
     45100  -78832.935      464.92482     -78368.01       190.90857      192.0592       656.74118    
     45200  -78803.996      460.65878     -78343.338      190.89173      192.0431       657.00913    
     45300  -78782.085      465.25685     -78316.829      190.87528      192.02808      657.27708    
     45400  -78755.608      466.40469     -78289.203      190.85919      192.01188      657.54503    
     45500  -78726.355      467.15308     -78259.202      190.84458      191.99494      657.81297    
     45600  -78694.206      463.41748     -78230.789      190.8297       191.97762      658.08092    
     45700  -78666.463      457.28684     -78209.176      190.81323      191.96184      658.34887    
     45800  -78650.323      461.79624     -78188.526      190.79607      191.94817      658.61682    
     45900  -78623.934      461.54127     -78162.393      190.77755      191.93305      658.88477    
     46000  -78592.402      462.18075     -78130.221      190.76179      191.91874      659.15272    
     46100  -78567.91       472.28848     -78095.622      190.74522      191.90125      659.42066    
     46200  -78542.184      469.45756     -78072.727      190.73107      191.88584      659.68861    
     46300  -78518.646      466.75932     -78051.886      190.714        191.86848      659.95656    
     46400  -78491.639      463.14448     -78028.495      190.6987       191.85351      660.22451    
     46500  -78466.938      464.02122     -78002.917      190.68266      191.83675      660.49246    
     46600  -78434.443      461.34026     -77973.103      190.66808      191.81944      660.76041    
     46700  -78411.251      471.7912      -77939.46       190.65413      191.80191      661.02835    
     46800  -78381.87       467.45956     -77914.41       190.63788      191.78526      661.2963     
     46900  -78358.176      462.68245     -77895.494      190.62083      191.77148      661.56425    
     47000  -78329.125      457.89902     -77871.226      190.60176      191.75713      661.8322     
     47100  -78306.467      463.49311     -77842.973      190.58485      191.74378      662.10015    
     47200  -78278.132      464.94042     -77813.192      190.56824      191.72703      662.3681     
     47300  -78248.291      464.69337     -77783.597      190.55482      191.70995      662.63604    
     47400  -78224.009      466.11113     -77757.898      190.54039      191.69207      662.90399    
     47500  -78197.245      458.87076     -77738.374      190.52522      191.67632      663.17194    
     47600  -78178.124      463.08403     -77715.04       190.50866      191.66077      663.43989    
     47700  -78141.508      455.24325     -77686.265      190.49334      191.64559      663.70784    
     47800  -78120.128      468.87971     -77651.248      190.47816      191.62907      663.97578    
     47900  -78090.047      468.21908     -77621.828      190.46298      191.61334      664.24373    
     48000  -78062.67       464.9486      -77597.722      190.4466       191.59908      664.51168    
     48100  -78042.463      467.40508     -77575.058      190.42886      191.58537      664.77963    
     48200  -78015.202      464.01748     -77551.184      190.41199      191.57169      665.04758    
     48300  -77985.768      459.69242     -77526.075      190.3963       191.55647      665.31553    
     48400  -77961.796      464.15537     -77497.64       190.3818       191.54016      665.58347    
     48500  -77929.583      464.78939     -77464.793      190.36726      191.52423      665.85142    
     48600  -77900.315      463.70842     -77436.606      190.35139      191.50875      666.11937    
     48700  -77880.984      464.67936     -77416.304      190.33524      191.4946       666.38732    
     48800  -77859.705      465.91711     -77393.788      190.31928      191.48025      666.65527    
     48900  -77829.25       463.36247     -77365.887      190.30353      191.4645       666.92322    
     49000  -77799.641      464.42069     -77335.22       190.28894      191.44944      667.19116    
     49100  -77768.254      468.058       -77300.196      190.27293      191.43346      667.45911    
     49200  -77746.546      475.90217     -77270.644      190.25754      191.41885      667.72706    
     49300  -77721.59       467.18709     -77254.403      190.24116      191.40409      667.99501    
     49400  -77696.926      466.66724     -77230.259      190.22524      191.38973      668.26296    
     49500  -77664.876      459.36736     -77205.509      190.20945      191.37403      668.5309     
     49600  -77640.512      462.28792     -77178.224      190.19438      191.35856      668.79885    
     49700  -77614.311      467.24864     -77147.062      190.17825      191.3428       669.0668     
     49800  -77582.939      467.37835     -77115.56       190.16226      191.32858      669.33475    
     49900  -77557.589      466.24903     -77091.34       190.14527      191.31394      669.6027     
     50000  -77535.51       462.94288     -77072.567      190.12916      191.29934      669.87065    
     50100  -77511.377      465.54846     -77045.828      190.11404      191.28314      670.13859    
     50200  -77481.823      466.37885     -77015.444      190.09992      191.26611      670.40654    
     50300  -77450.892      469.43651     -76981.455      190.08534      191.24951      670.67449    
     50400  -77422.94       473.93615     -76949.004      190.0696       191.23385      670.94244    
     50500  -77399.732      471.92708     -76927.805      190.05308      191.21909      671.21039    
     50600  -77369.817      461.58248     -76908.235      190.03627      191.20397      671.47834    
     50700  -77348.139      464.96473     -76883.174      190.02008      191.18922      671.74628    
     50800  -77312.624      456.98565     -76855.638      190.0031       191.17315      672.01423    
     50900  -77290.75       463.69212     -76827.058      189.98708      191.15934      672.28218    
     51000  -77258.303      461.99764     -76796.306      189.9691       191.14302      672.55013    
     51100  -77234.553      469.01671     -76765.537      189.95429      191.12841      672.81808    
     51200  -77209.431      465.57596     -76743.855      189.93776      191.10994      673.08603    
     51300  -77185.545      463.55603     -76721.989      189.92455      191.09408      673.35397    
     51400  -77162.18       467.73259     -76694.448      189.90807      191.07563      673.62192    
     51500  -77129.571      464.97486     -76664.596      189.89346      191.06058      673.88987    
     51600  -77101.33       470.14279     -76631.187      189.87592      191.04344      674.15782    
     51700  -77068.598      468.594       -76600.004      189.86004      191.02839      674.42577    
     51800  -77047.953      466.55122     -76581.402      189.84269      191.0125       674.69371    
     51900  -77017.779      460.00089     -76557.778      189.82496      190.99747      674.96166    
     52000  -76996.458      464.16928     -76532.289      189.80775      190.98263      675.22961    
     52100  -76966.843      460.64656     -76506.197      189.79102      190.96606      675.49756    
     52200  -76942.129      463.55069     -76478.579      189.77613      190.94937      675.76551    
     52300  -76909.259      458.92172     -76450.337      189.76032      190.93092      676.03346    
     52400  -76885.979      465.22298     -76420.756      189.74551      190.91467      676.3014     
     52500  -76858.267      465.36868     -76392.898      189.72877      190.89712      676.56935    
     52600  -76833.055      462.42416     -76370.631      189.7136       190.88105      676.8373     
     52700  -76807.575      460.92015     -76346.655      189.69669      190.86415      677.10525    
     52800  -76784.328      467.08186     -76317.246      189.67985      190.84945      677.3732     
     52900  -76752.154      470.44177     -76281.712      189.66155      190.83466      677.64115    
     53000  -76718.658      471.72767     -76246.93       189.64426      190.82002      677.90909    
     53100  -76691.19       467.30749     -76223.882      189.62787      190.80355      678.17704    
     53200  -76664.418      463.54873     -76200.87       189.61246      190.78692      678.44499    
     53300  -76643.212      466.30449     -76176.907      189.59647      190.77035      678.71294    
     53400  -76615.681      463.22077     -76152.461      189.58006      190.75439      678.98089    
     53500  -76583.158      456.46985     -76126.688      189.56303      190.7383       679.24884    
     53600  -76562.454      462.90709     -76099.547      189.54715      190.72241      679.51678    
     53700  -76534.328      462.84903     -76071.479      189.53038      190.70511      679.78473    
     53800  -76503.981      463.23201     -76040.749      189.5143       190.68997      680.05268    
     53900  -76472.498      462.67972     -76009.818      189.49583      190.67416      680.32063    
     54000  -76444.263      460.67526     -75983.588      189.47899      190.65915      680.58858    
     54100  -76423.167      460.61882     -75962.548      189.46209      190.6425       680.85652    
     54200  -76396.078      460.85504     -75935.223      189.44617      190.62568      681.12447    
     54300  -76369.895      465.78155     -75904.113      189.43005      190.60848      681.39242    
     54400  -76337.155      465.40638     -75871.749      189.41389      190.59134      681.66037    
     54500  -76307.033      471.67172     -75835.362      189.39719      190.57494      681.92832    
     54600  -76282.08       470.77021     -75811.31       189.37954      190.55827      682.19627    
     54700  -76256.764      466.82824     -75789.936      189.36254      190.54353      682.46421    
     54800  -76229.624      463.30025     -75766.324      189.3434       190.52662      682.73216    
     54900  -76201.392      459.7598      -75741.632      189.32796      190.51182      683.00011    
     55000  -76173.95       459.74504     -75714.205      189.30976      190.49316      683.26806    
     55100  -76145.969      462.63758     -75683.331      189.2949       190.47751      683.53601    
     55200  -76117.384      468.51754     -75648.867      189.27671      190.45841      683.80396    
     55300  -76089.897      469.90004     -75619.997      189.26157      190.44253      684.0719     
     55400  -76058.671      458.19636     -75600.474      189.24358      190.42388      684.33985    
     55500  -76032.767      458.15948     -75574.607      189.22764      190.40738      684.6078     
     55600  -76009.859      461.92758     -75547.932      189.20959      190.38992      684.87575    
     55700  -75982.605      460.86552     -75521.739      189.19131      190.37431      685.1437     
     55800  -75960.661      464.40928     -75496.252      189.17263      190.35883      685.41165    
     55900  -75933.498      462.61025     -75470.887      189.15403      190.34155      685.67959    
     56000  -75901.079      461.73674     -75439.342      189.13805      190.32468      685.94754    
     56100  -75867.263      465.11587     -75402.147      189.12025      190.30512      686.21549    
     56200  -75843.85       471.75713     -75372.093      189.10482      190.28849      686.48344    
     56300  -75817.522      467.77328     -75349.748      189.08602      190.2692       686.75139    
     56400  -75791.247      468.08925     -75323.158      189.0708       190.25315      687.01933    
     56500  -75764.393      466.84478     -75297.548      189.05163      190.23333      687.28728    
     56600  -75738.158      466.33454     -75271.823      189.03626      190.21759      687.55523    
     56700  -75703.355      457.95686     -75245.399      189.01644      190.19791      687.82318    
     56800  -75681.188      458.95112     -75222.237      188.9998       190.18275      688.09113    
     56900  -75654.298      457.39355     -75196.905      188.97962      190.1644       688.35908    
     57000  -75623.599      463.55577     -75160.043      188.96252      190.14877      688.62702    
     57100  -75593.63       467.20347     -75126.426      188.94312      190.12985      688.89497    
     57200  -75564.365      466.12937     -75098.235      188.92729      190.11262      689.16292    
     57300  -75539.15       464.48724     -75074.663      188.9095       190.09214      689.43087    
     57400  -75513.676      465.42422     -75048.251      188.89398      190.07422      689.69882    
     57500  -75487.285      468.00464     -75019.28       188.87573      190.05583      689.96677    
     57600  -75457.14       465.36735     -74991.773      188.85712      190.03929      690.23471    
     57700  -75429.096      458.08307     -74971.013      188.83864      190.0224       690.50266    
     57800  -75399.073      456.25288     -74942.82       188.82127      190.00431      690.77061    
     57900  -75370.362      462.6138      -74907.748      188.8048       189.98635      691.03856    
     58000  -75339.254      465.64082     -74873.613      188.78589      189.96814      691.30651    
     58100  -75314.26       468.73129     -74845.529      188.76751      189.95295      691.57446    
     58200  -75287.083      462.33071     -74824.752      188.74759      189.9357       691.8424     
     58300  -75258.777      463.81092     -74794.966      188.73123      189.91892      692.11035    
     58400  -75226.042      462.13964     -74763.903      188.71381      189.89864      692.3783     
     58500  -75197.608      462.93076     -74734.677      188.69783      189.88071      692.64625    
     58600  -75172.601      461.45754     -74711.143      188.67843      189.86298      692.9142     
     58700  -75147.138      463.34173     -74683.797      188.65964      189.84819      693.18214    
     58800  -75115.31       462.70171     -74652.609      188.63957      189.83041      693.45009    
     58900  -75084.881      464.79916     -74620.082      188.62293      189.81313      693.71804    
     59000  -75054.837      468.10443     -74586.733      188.60522      189.79315      693.98599    
     59100  -75028.452      468.49089     -74559.962      188.58863      189.77578      694.25394    
     59200  -75001.809      464.94789     -74536.861      188.56854      189.75764      694.52189    
     59300  -74975.244      465.64578     -74509.599      188.55087      189.74204      694.78983    
     59400  -74941.104      458.84614     -74482.258      188.53203      189.7231       695.05778    
     59500  -74918.656      465.39491     -74453.261      188.51589      189.70519      695.32573    
     59600  -74892.149      465.71902     -74426.43       188.49707      189.6859       695.59368    
     59700  -74864.268      462.98687     -74401.281      188.47931      189.66997      695.86163    
     59800  -74829.125      459.49377     -74369.631      188.45871      189.65264      696.12958    
     59900  -74799.291      469.329       -74329.962      188.44032      189.63617      696.39752    
     60000  -74763.392      469.79052     -74293.601      188.42205      189.61693      696.66547    
     60100  -74738.408      472.15869     -74266.249      188.4054       189.59789      696.93342    
     60200  -74710.518      469.98074     -74240.537      188.388        189.57919      697.20137    
     60300  -74681.584      465.94963     -74215.634      188.36934      189.561        697.46932    
     60400  -74651.313      461.80065     -74189.513      188.35118      189.54312      697.73727    
     60500  -74621.101      459.45705     -74161.644      188.33251      189.52446      698.00521    
     60600  -74595.482      462.69013     -74132.792      188.31478      189.50665      698.27316    
     60700  -74567.671      463.64872     -74104.023      188.29578      189.48837      698.54111    
     60800  -74540.275      460.55103     -74079.724      188.27708      189.47093      698.80906    
     60900  -74507.724      458.68559     -74049.038      188.25822      189.45336      699.07701    
     61000  -74477.745      463.21735     -74014.528      188.23934      189.43515      699.34495    
     61100  -74444.875      464.08598     -73980.789      188.22134      189.41737      699.6129     
     61200  -74417.193      463.37923     -73953.813      188.20348      189.3982       699.88085    
     61300  -74390.894      463.22195     -73927.672      188.18705      189.37928      700.1488     
     61400  -74356.732      462.49295     -73894.239      188.16935      189.35873      700.41675    
     61500  -74329.373      467.65995     -73861.714      188.15228      189.34095      700.6847     
     61600  -74298.172      462.50075     -73835.672      188.13216      189.32242      700.95264    
     61700  -74268.915      461.78528     -73807.13       188.11405      189.30612      701.22059    
     61800  -74240          466.35114     -73773.649      188.09387      189.28665      701.48854    
     61900  -74209.071      467.11988     -73741.952      188.07703      189.26989      701.75649    
     62000  -74174.628      457.56731     -73717.06       188.05692      189.25054      702.02444    
     62100  -74150.342      464.45158     -73685.891      188.03949      189.23443      702.29239    
     62200  -74113.559      461.26609     -73652.292      188.01984      189.2149       702.56033    
     62300  -74084.381      464.2951      -73620.086      188.0042       189.19723      702.82828    
     62400  -74056.02       462.15099     -73593.869      187.98594      189.1765       703.09623    
     62500  -74024.243      462.16202     -73562.081      187.96961      189.15915      703.36418    
     62600  -73995.934      466.05874     -73529.875      187.95007      189.14078      703.63213    
     62700  -73959.253      461.28202     -73497.971      187.93221      189.12475      703.90008    
     62800  -73936.478      466.93703     -73469.541      187.91308      189.10692      704.16802    
     62900  -73902.601      460.75271     -73441.849      187.89531      189.09009      704.43597    
     63000  -73867.629      460.50508     -73407.124      187.87659      189.07207      704.70392    
     63100  -73833.771      462.97649     -73370.795      187.85919      189.05462      704.97187    
     63200  -73807.701      468.9949      -73338.706      187.84091      189.03648      705.23982    
     63300  -73776.58       465.44596     -73311.134      187.82332      189.01883      705.50776    
     63400  -73743.704      464.78469     -73278.92       187.80546      189.00107      705.77571    
     63500  -73715.115      468.7371      -73246.378      187.78733      188.98348      706.04366    
     63600  -73682.641      466.97213     -73215.669      187.76959      188.96601      706.31161    
     63700  -73646.544      462.48275     -73184.061      187.75134      188.94849      706.57956    
     63800  -73616.665      466.9655      -73149.699      187.73324      188.93194      706.84751    
     63900  -73578.411      461.1833      -73117.228      187.7145       188.91466      707.11545    
     64000  -73548.299      461.96116     -73086.338      187.69738      188.89702      707.3834     
     64100  -73519.699      466.24474     -73053.454      187.68054      188.87815      707.65135    
     64200  -73483.167      463.54083     -73019.626      187.66408      188.86041      707.9193     
     64300  -73452.099      467.64307     -72984.456      187.64596      188.84243      708.18725    
     64400  -73420.166      467.76735     -72952.399      187.62884      188.82598      708.4552     
     64500  -73384.979      465.67853     -72919.301      187.61041      188.80791      708.72314    
     64600  -73357.462      471.16132     -72886.301      187.59354      188.79137      708.99109    
     64700  -73319.493      466.13761     -72853.355      187.57441      188.77371      709.25904    
     64800  -73288.229      467.27505     -72820.954      187.55658      188.75844      709.52699    
     64900  -73254.086      465.32822     -72788.758      187.53749      188.74072      709.79494    
     65000  -73223.442      468.85025     -72754.592      187.52187      188.72332      710.06289    
     65100  -73185.278      464.4353      -72720.842      187.50517      188.70327      710.33083    
     65200  -73151.672      465.60658     -72686.065      187.49033      188.6861       710.59878    
     65300  -73114.367      462.51379     -72651.853      187.472        188.66785      710.86673    
     65400  -73084.431      466.876       -72617.555      187.4555       188.65217      711.13468    
     65500  -73050.969      467.60692     -72583.362      187.43745      188.63383      711.40263    
     65600  -73011.938      462.60487     -72549.333      187.42216      188.61719      711.67057    
     65700  -72978.451      464.679       -72513.772      187.40359      188.59958      711.93852    
     65800  -72944.58       465.84556     -72478.735      187.38557      188.5854       712.20647    
     65900  -72913.502      470.85486     -72442.647      187.36614      188.56895      712.47442    
     66000  -72875.625      467.32924     -72408.296      187.35067      188.55212      712.74237    
     66100  -72838.605      464.76934     -72373.836      187.3348       188.53275      713.01032    
     66200  -72805.511      466.01973     -72339.492      187.31944      188.51561      713.27826    
     66300  -72769.614      465.51801     -72304.096      187.30187      188.49863      713.54621    
     66400  -72733.366      465.08667     -72268.279      187.28517      188.48229      713.81416    
     66500  -72697.58       465.05714     -72232.523      187.26888      188.46495      714.08211    
     66600  -72664.664      466.81835     -72197.846      187.25315      188.448        714.35006    
     66700  -72630.087      468.84231     -72161.244      187.23639      188.43177      714.61801    
     66800  -72588.183      462.43354     -72125.749      187.21887      188.41654      714.88595    
     66900  -72555.762      466.37955     -72089.382      187.20225      188.40151      715.1539     
     67000  -72522.386      469.97202     -72052.414      187.1859       188.38492      715.42185    
     67100  -72479.129      463.12747     -72016.001      187.17082      188.36864      715.6898     
     67200  -72447.737      469.01338     -71978.723      187.1544       188.35225      715.95775    
     67300  -72410.868      468.63634     -71942.232      187.13823      188.33731      716.22569    
     67400  -72370.993      465.76346     -71905.229      187.12163      188.32173      716.49364    
     67500  -72333.084      465.45893     -71867.625      187.10625      188.30571      716.76159    
     67600  -72299.943      468.32159     -71831.621      187.09103      188.28947      717.02954    
     67700  -72259.465      466.10344     -71793.362      187.07537      188.27369      717.29749    
     67800  -72224.879      469.09794     -71755.781      187.05957      188.25878      717.56544    
     67900  -72189.306      470.51706     -71718.789      187.04383      188.24343      717.83338    
     68000  -72145.375      466.47436     -71678.9        187.02917      188.22766      718.10133    
     68100  -72104.889      464.64797     -71640.241      187.01403      188.21197      718.36928    
     68200  -72073.92       471.21562     -71602.705      186.9981       188.19772      718.63723    
     68300  -72026.738      463.099       -71563.639      186.98211      188.18347      718.90518    
     68400  -71989.7        465.55027     -71524.15       186.9672       188.16848      719.17313    
     68500  -71949.25       464.62037     -71484.63       186.95231      188.15283      719.44107    
[...]
     81600  -85686.877      439.32104     -85247.556      186.55004      187.9218       754.5423     
     81700  -85719.116      446.68807     -85272.428      186.56506      187.93792      754.81024    
     81800  -85735.595      471.69141     -85263.904      186.57778      187.95302      755.07819    
     81900  -85759.586      488.53654     -85271.049      186.59187      187.97318      755.34614    
     82000  -85760.29       454.90447     -85305.385      186.60349      187.99442      755.61409    
     82100  -85750.281      435.41326     -85314.868      186.61248      188.01894      755.88204    
     82200  -85751.206      464.76578     -85286.44       186.61821      188.03846      756.14999    
     82300  -85737.504      483.18538     -85254.319      186.63055      188.06313      756.41793    
     82400  -85726.445      468.27304     -85258.172      186.63795      188.08977      756.68588    
     82500  -85740.857      468.87328     -85271.983      186.6483       188.11103      756.95383    
     82600  -85769.058      475.80955     -85293.249      186.66069      188.12531      757.22178    
     82700  -85808.252      466.3531      -85341.899      186.67951      188.14191      757.48973    
     82800  -85829.977      444.90605     -85385.071      186.69476      188.14734      757.75768    
     82900  -85835.652      442.39687     -85393.255      186.71411      188.16106      758.02562    
     83000  -85827.646      456.23978     -85371.406      186.72576      188.17486      758.29357    
     83100  -85824.776      481.40937     -85343.367      186.74183      188.19559      758.56152    
     83200  -85821.98       477.05869     -85344.921      186.75463      188.21429      758.82947    
     83300  -85833.174      462.00665     -85371.167      186.77038      188.23788      759.09742    
     83400  -85833.616      446.41981     -85387.196      186.78597      188.26403      759.36536    
     83500  -85838.04       466.11041     -85371.93       186.80469      188.28956      759.63331    
     83600  -85832.427      478.92147     -85353.505      186.82185      188.31522      759.90126    
     83700  -85849.661      479.79682     -85369.864      186.83908      188.33819      760.16921    
     83800  -85866.281      452.34994     -85413.931      186.85981      188.35764      760.43716    
     83900  -85877.833      442.06282     -85435.77       186.8773       188.37219      760.70511    
     84000  -85878.456      458.58289     -85419.874      186.8948       188.39121      760.97305    
     84100  -85879.142      483.07884     -85396.064      186.90954      188.40873      761.241      
     84200  -85890.358      481.63765     -85408.72       186.92554      188.42846      761.50895    
     84300  -85910.726      457.73578     -85452.99       186.93747      188.44557      761.7769     
     84400  -85924.999      442.8672      -85482.132      186.95483      188.46238      762.04485    
     84500  -85925.055      451.58212     -85473.473      186.97071      188.47304      762.3128     
     84600  -85915.329      474.54844     -85440.78       186.98646      188.48294      762.58074    
     84700  -85925.919      495.26657     -85430.653      186.99924      188.49019      762.84869    
     84800  -85939.746      466.59462     -85473.152      187.00733      188.49958      763.11664    
     84900  -85960.917      442.82273     -85518.094      187.0118       188.51026      763.38459    
     85000  -85962.36       437.93635     -85524.423      187.01281      188.52086      763.65254    
     85100  -85957.365      467.49011     -85489.875      187.01509      188.537        763.92048    
     85200  -85946.388      484.17304     -85462.215      187.012        188.55514      764.18843    
     85300  -85933.669      463.54219     -85470.126      187.006        188.57705      764.45638    
     85400  -85939.921      455.16823     -85484.753      186.99562      188.5973       764.72433    
     85500  -85932.4        456.59285     -85475.807      186.98586      188.62057      764.99228    
     85600  -85916.792      467.72327     -85449.068      186.97117      188.641        765.26023    
     85700  -85894.002      468.21098     -85425.791      186.95563      188.65874      765.52817    
     85800  -85891.886      474.86395     -85417.022      186.94486      188.67628      765.79612    
     85900  -85900.316      472.6124      -85427.704      186.93494      188.69351      766.06407    
     86000  -85908.533      456.38805     -85452.145      186.92408      188.70893      766.33202    
     86100  -85923.023      454.80968     -85468.213      186.91653      188.72454      766.59997    
     86200  -85931.107      461.60145     -85469.505      186.91231      188.74097      766.86792    
     86300  -85925.46       463.6382      -85461.821      186.90947      188.75108      767.13586    
     86400  -85919.212      464.66738     -85454.545      186.91204      188.75811      767.40381    
     86500  -85905.064      459.99246     -85445.072      186.91614      188.75788      767.67176    
     86600  -85900.282      468.68158     -85431.6        186.92263      188.75539      767.93971    
     86700  -85900.833      469.59029     -85431.242      186.93152      188.74918      768.20766    
     86800  -85920.725      471.8614      -85448.864      186.9451       188.74217      768.47561    
     86900  -85943.714      463.08645     -85480.628      186.95939      188.73245      768.74355    
     87000  -85957.32       449.91818     -85507.402      186.976        188.72522      769.0115     
     87100  -85959.173      447.61424     -85511.559      186.9922       188.72181      769.27945    
     87200  -85958.947      464.39261     -85494.554      187.00817      188.72434      769.5474     
     87300  -85931.946      461.58121     -85470.365      187.02666      188.72783      769.81535    
     87400  -85924.748      473.21653     -85451.532      187.04887      188.73157      770.08329    
     87500  -85922.729      471.10073     -85451.629      187.07246      188.73934      770.35124    
     87600  -85923.088      456.41752     -85466.671      187.09813      188.75088      770.61919    
     87700  -85930.104      456.09847     -85474.006      187.12178      188.7668       770.88714    
     87800  -85928.286      462.94481     -85465.342      187.14201      188.78723      771.15509    
     87900  -85912.498      465.83035     -85446.668      187.16009      188.80701      771.42304    
     88000  -85881.327      459.44907     -85421.878      187.17777      188.82971      771.69098    
     88100  -85860.969      465.04472     -85395.924      187.19067      188.85188      771.95893    
     88200  -85849.87       469.99673     -85379.873      187.20723      188.87516      772.22688    
     88300  -85848.039      468.71399     -85379.325      187.2174       188.89113      772.49483    
     88400  -85853.819      465.91793     -85387.901      187.22558      188.90742      772.76278    
     88500  -85856.841      459.64577     -85397.196      187.22657      188.91737      773.03073    
     88600  -85868.77       463.82579     -85404.944      187.22632      188.92736      773.29867    
     88700  -85883.846      470.5954      -85413.251      187.22121      188.93502      773.56662    
     88800  -85899.993      471.34992     -85428.643      187.21344      188.93946      773.83457    
     88900  -85909.723      462.55524     -85447.168      187.20503      188.94359      774.10252    
     89000  -85921.179      460.50875     -85460.671      187.19264      188.94768      774.37047    
     89100  -85928.326      460.82109     -85467.505      187.18231      188.95337      774.63842    
     89200  -85941.662      468.34451     -85473.318      187.17007      188.95984      774.90636    
     89300  -85947.283      464.14262     -85483.14       187.16128      188.96999      775.17431    
     89400  -85950.9        462.19906     -85488.701      187.15399      188.98066      775.44226    
     89500  -85945.947      458.1141      -85487.833      187.15151      188.99489      775.71021    
     89600  -85943.589      462.79913     -85480.79       187.15323      189.01102      775.97816    
     89700  -85937.306      462.83008     -85474.476      187.16043      189.03243      776.2461     
     89800  -85944.47       469.69147     -85474.778      187.16804      189.05917      776.51405    
     89900  -85947.864      465.56674     -85482.298      187.17932      189.09181      776.782      
     90000  -85950.941      461.68568     -85489.256      187.19443      189.12751      777.04995    
     90100  -85947.502      456.2554      -85491.247      187.21416      189.16338      777.3179     
     90200  -85944.645      461.79265     -85482.853      187.24135      189.20069      777.58585    
     90300  -85933.638      463.64241     -85469.995      187.27197      189.23568      777.85379    
     90400  -85925.204      465.71442     -85459.49       187.30629      189.26914      778.12174    
     90500  -85904.808      459.44391     -85445.364      187.33972      189.30216      778.38969    
     90600  -85881.252      461.99594     -85419.256      187.37079      189.33202      778.65764    
     90700  -85863.677      475.37487     -85388.302      187.40088      189.36138      778.92559    
     90800  -85856.878      481.9557      -85374.922      187.43102      189.38977      779.19354    
     90900  -85864.164      475.06626     -85389.098      187.45935      189.41167      779.46148    
     91000  -85871.273      455.38023     -85415.893      187.48755      189.42851      779.72943    
     91100  -85885.398      457.81182     -85427.586      187.51351      189.44222      779.99738    
     91200  -85891.387      466.74207     -85424.645      187.53974      189.45516      780.26533    
     91300  -85893.146      466.35255     -85426.793      187.55921      189.46374      780.53328    
     91400  -85912.66       468.70836     -85443.952      187.57775      189.47775      780.80123    
     91500  -85921.15       455.7389      -85465.411      187.5885       189.49084      781.06917    
     91600  -85924.434      450.13587     -85474.298      187.59723      189.50976      781.33712    
     91700  -85927.413      461.3576      -85466.055      187.60333      189.53152      781.60507    
     91800  -85914.052      466.10888     -85447.943      187.60989      189.55498      781.87302    
     91900  -85901.308      467.50102     -85433.807      187.6158       189.57619      782.14097    
     92000  -85905.906      472.53501     -85433.371      187.62226      189.5981       782.40891    
     92100  -85910.193      466.17663     -85444.016      187.62587      189.6186       782.67686    
     92200  -85906.431      453.67989     -85452.751      187.62976      189.64168      782.94481    
     92300  -85907.291      460.01587     -85447.275      187.63186      189.6619       783.21276    
     92400  -85899.786      467.65275     -85432.133      187.63721      189.68207      783.48071    
     92500  -85885.987      467.47218     -85418.514      187.644        189.7001       783.74866    
     92600  -85883.62       472.3702      -85411.249      187.65591      189.71718      784.0166     
     92700  -85891.183      479.61895     -85411.565      187.66989      189.73092      784.28455    
     92800  -85886.62       466.74312     -85419.877      187.68777      189.74576      784.5525     
     92900  -85887.785      462.04689     -85425.738      187.70486      189.75837      784.82045    
     93000  -85894.597      465.76202     -85428.835      187.72638      189.76987      785.0884     
     93100  -85903.738      467.67999     -85436.058      187.74912      189.77576      785.35635    
     93200  -85914.373      464.89522     -85449.477      187.77675      189.77878      785.62429    
     93300  -85919.552      456.71788     -85462.835      187.80349      189.77714      785.89224    
     93400  -85922.13       454.40072     -85467.729      187.83214      189.77825      786.16019    
     93500  -85926.684      464.95678     -85461.728      187.85763      189.78098      786.42814    
     93600  -85924.346      470.02093     -85454.325      187.8812       189.78764      786.69609    
     93700  -85925.446      465.86221     -85459.584      187.90307      189.79628      786.96404    
     93800  -85937.05       464.09101     -85472.959      187.92784      189.80758      787.23198    
     93900  -85944.671      459.04303     -85485.628      187.95228      189.81793      787.49993    
     94000  -85941.852      456.44583     -85485.406      187.97781      189.8294       787.76788    
     94100  -85934.893      463.98797     -85470.905      188.00423      189.84424      788.03583    
     94200  -85925.257      472.22265     -85453.034      188.02708      189.86275      788.30378    
     94300  -85923.535      477.31297     -85446.222      188.05004      189.88745      788.57172    
     94400  -85918.785      462.2578      -85456.527      188.0701       189.91691      788.83967    
     94500  -85919.437      452.75394     -85466.683      188.08786      189.94661      789.10762    
     94600  -85909.677      452.50685     -85457.17       188.1068       189.97293      789.37557    
     94700  -85901.481      468.54667     -85432.934      188.12783      189.99674      789.64352    
     94800  -85888.536      472.14672     -85416.389      188.151        190.01723      789.91147    
     94900  -85890.849      471.7374      -85419.112      188.17306      190.03445      790.17941    
     95000  -85895.215      461.05517     -85434.16       188.19232      190.05238      790.44736    
     95100  -85904.997      458.57203     -85446.425      188.20887      190.06968      790.71531    
     95200  -85906.606      460.51137     -85446.094      188.22492      190.085        790.98326    
     95300  -85913.345      470.93907     -85442.406      188.24178      190.09942      791.25121    
     95400  -85915.699      468.98474     -85446.714      188.26135      190.10988      791.51916    
     95500  -85928.875      463.41026     -85465.465      188.28268      190.11867      791.7871     
     95600  -85940.544      456.57833     -85483.966      188.30597      190.12893      792.05505    
     95700  -85942.252      454.32247     -85487.929      188.3299       190.14201      792.323      
     95800  -85932.255      458.22108     -85474.033      188.35195      190.15912      792.59095    
     95900  -85927.709      471.59084     -85456.119      188.37339      190.18099      792.8589     
     96000  -85929.231      473.04535     -85456.185      188.39431      190.20412      793.12685    
     96100  -85944.007      466.66521     -85477.342      188.41934      190.2299       793.39479    
     96200  -85954.742      453.52418     -85501.218      188.44698      190.25719      793.66274    
     96300  -85958.114      449.32335     -85508.791      188.47893      190.28526      793.93069    
     96400  -85951.209      458.84182     -85492.368      188.51402      190.31448      794.19864    
     96500  -85941.911      476.11877     -85465.792      188.54808      190.34482      794.46659    
     96600  -85924.426      473.30873     -85451.117      188.58468      190.38058      794.73453    
     96700  -85923.007      469.97157     -85453.036      188.61916      190.41306      795.00248    
     96800  -85911.494      454.59965     -85456.894      188.65716      190.44801      795.27043    
     96900  -85905.156      456.39598     -85448.76       188.69463      190.47781      795.53838    
     97000  -85901          473.3196      -85427.681      188.73608      190.50548      795.80633    
     97100  -85886.287      473.75882     -85412.528      188.7768       190.52821      796.07428    
     97200  -85892.008      472.94579     -85419.062      188.81622      190.54971      796.34222    
     97300  -85904.053      462.51829     -85441.534      188.85031      190.5695       796.61017    
     97400  -85917.677      453.99074     -85463.687      188.88305      190.58999      796.87812    
     97500  -85929.389      457.38107     -85472.008      188.9117       190.60679      797.14607    
     97600  -85932.295      467.2736      -85465.021      188.9409       190.62435      797.41402    
     97700  -85925.806      467.79745     -85458.009      188.96818      190.63907      797.68197    
     97800  -85926.752      464.5974      -85462.155      188.99646      190.6538       797.94991    
     97900  -85936.141      461.65534     -85474.485      189.02257      190.66862      798.21786    
     98000  -85937.139      455.32136     -85481.817      189.04806      190.68694      798.48581    
     98100  -85928.153      454.7081      -85473.445      189.07076      190.70781      798.75376    
     98200  -85921.447      465.99334     -85455.453      189.09155      190.73018      799.02171    
     98300  -85920.776      475.60861     -85445.168      189.11216      190.75607      799.28966    
     98400  -85918.048      467.54773     -85450.501      189.13166      190.78021      799.5576     
     98500  -85918.715      457.70033     -85461.015      189.15442      190.80582      799.82555    
     98600  -85919.713      455.10148     -85464.611      189.17738      190.8274       800.0935     
     98700  -85910.768      456.62971     -85454.139      189.20236      190.8489       800.36145    
     98800  -85901.402      467.49895     -85433.903      189.22787      190.86784      800.6294     
     98900  -85893.72       473.82702     -85419.893      189.25565      190.88595      800.89734    
     99000  -85893.668      468.81267     -85424.855      189.28234      190.90233      801.16529    
     99100  -85899.999      460.92815     -85439.07       189.31009      190.91876      801.43324    
     99200  -85905.261      459.07816     -85446.183      189.33639      190.93122      801.70119    
     99300  -85902.437      461.31703     -85441.12       189.36172      190.94241      801.96914    
     99400  -85902.631      469.47562     -85433.155      189.38779      190.95188      802.23709    
     99500  -85906.557      467.11673     -85439.441      189.41339      190.95825      802.50503    
     99600  -85925.91       464.91463     -85460.996      189.43917      190.96507      802.77298    
     99700  -85939.44       457.76088     -85481.679      189.46432      190.97109      803.04093    
     99800  -85936.169      448.8472      -85487.322      189.49028      190.97974      803.30888    
     99900  -85935.791      456.54927     -85479.242      189.51461      190.98771      803.57683    
    100000  -85940.143      470.73755     -85469.406      189.5415       190.99894      803.84478    
Loop time of 2357.69 on 12 procs for 100000 steps with 11960 atoms

Performance: 3.665 ns/day, 6.549 hours/ns, 42.414 timesteps/s, 507.275 katom-step/s
95.7% CPU use with 12 MPI tasks x 1 OpenMP threads

MPI task timing breakdown:
Section |  min time  |  avg time  |  max time  |%varavg| %total
---------------------------------------------------------------
Pair    | 1760.7     | 1956.4     | 2170.4     | 309.1 | 82.98
Neigh   | 14.172     | 17.246     | 21.453     |  62.8 |  0.73
Comm    | 101.24     | 288.69     | 517.95     | 737.6 | 12.24
Output  | 0.57911    | 0.62733    | 0.68925    |   4.2 |  0.03
Modify  | 61.299     | 92.236     | 152.79     | 440.0 |  3.91
Other   |            | 2.514      |            |       |  0.11

Nlocal:        996.667 ave        1687 max         532 min
Histogram: 1 1 3 2 2 1 0 0 0 2
Nghost:        3376.33 ave        4727 max        2616 min
Histogram: 2 4 2 0 0 0 1 1 0 2
Neighs:              0 ave           0 max           0 min
Histogram: 12 0 0 0 0 0 0 0 0 0

Total # of neighbors = 0
Ave neighs/atom = 0
Neighbor list builds = 788
Dangerous builds = 0
Total wall time: 0:39:18
