LAMMPS (2 Aug 2023 - Update 3)
OMP_NUM_THREADS environment is not set. Defaulting to 1 thread. (src/comm.cpp:98)
  using 1 OpenMP thread(s) per MPI task
Reading data file ...
  orthogonal box = (-100 -100 -2.3312511) to (100 100 38.891558)
  4 by 4 by 1 MPI processor grid
  reading atoms ...
  784 atoms
  read_data CPU = 0.005 seconds
Replication is creating a 1x1x13 = 13 times larger system...
  orthogonal box = (-100 -100 -2.3312511) to (100 100 533.56527)
  2 by 2 by 4 MPI processor grid
  10192 atoms
  replicate CPU = 0.001 seconds
System init for write_data ...
WARNING: Communication cutoff is 0.0. No ghost atoms will be generated. Atoms may get lost. (src/comm_brick.cpp:210)
Reading airebo potential file CH.airebo with DATE: 2011-10-25
Reading airebo potential file CH.airebo with DATE: 2011-10-25
Neighbor list info ...
  update: every = 1 steps, delay = 0 steps, check = yes
  max neighbors/atom: 2000, page size: 100000
  master list distance cutoff = 13.2
  ghost atom cutoff = 13.2
  binsize = 6.6, bins = 31 31 82
  5 neighbor lists, perpetual/occasional/extra = 5 0 0
  (1) pair airebo, perpetual, skip from (4)
      attributes: full, newton on, ghost
      pair build: skip/ghost
      stencil: none
      bin: none
  (2) pair airebo, perpetual, skip from (4)
      attributes: full, newton on, ghost
      pair build: skip/ghost
      stencil: none
      bin: none
  (3) pair lj/cut, perpetual, skip from (5)
      attributes: half, newton on, cut 13
      pair build: skip
      stencil: none
      bin: none
  (4) neighbor class addition, perpetual
      attributes: full, newton on, ghost
      pair build: full/bin/ghost
      stencil: full/ghost/bin/3d
      bin: standard
  (5) neighbor class addition, perpetual
      attributes: half, newton on, cut 13
      pair build: half/bin/atomonly/newton
      stencil: half/bin/3d
      bin: standard
Setting up sd style minimization ...
  Unit style    : metal
  Current step  : 0
Per MPI rank memory allocation (min/avg/max) = 10.61 | 10.61 | 10.61 Mbytes
   Step          Temp          E_pair         E_mol          TotEng         Press     
         0   0             -54126.11       0             -54126.11       6493.3023    
        22   0             -71997.318      0             -71997.318      191.11314    
Loop time of 0.494723 on 16 procs for 22 steps with 10192 atoms

97.7% CPU use with 16 MPI tasks x 1 OpenMP threads

Minimization stats:
  Stopping criterion = energy tolerance
  Energy initial, next-to-last, final = 
     -54126.1096661915  -71991.7527557643  -71997.3183939538
  Force two-norm initial, final = 3640.6223 31.684542
  Force max component initial, final = 135.10344 1.8602613
  Final line search alpha, max atom move = 0.048367349 0.089975905
  Iterations, force evaluations = 22 39

MPI task timing breakdown:
Section |  min time  |  avg time  |  max time  |%varavg| %total
---------------------------------------------------------------
Pair    | 0.43303    | 0.46012    | 0.48595    |   2.4 | 93.01
Neigh   | 0          | 0          | 0          |   0.0 |  0.00
Comm    | 0.0060568  | 0.030634   | 0.05778    |   9.3 |  6.19
Output  | 0          | 0          | 0          |   0.0 |  0.00
Modify  | 0          | 0          | 0          |   0.0 |  0.00
Other   |            | 0.003968   |            |       |  0.80

Nlocal:            637 ave         695 max         580 min
Histogram: 4 0 0 0 4 4 0 0 0 4
Nghost:           2409 ave        2466 max        2351 min
Histogram: 4 0 0 0 4 4 0 0 0 4
Neighs:              0 ave           0 max           0 min
Histogram: 16 0 0 0 0 0 0 0 0 0

Total # of neighbors = 0
Ave neighs/atom = 0
Neighbor list builds = 0
Dangerous builds = 0
Setting up Verlet run ...
  Unit style    : metal
  Current step  : 22
  Time step     : 0.001
Per MPI rank memory allocation (min/avg/max) = 11.23 | 11.23 | 11.24 Mbytes
   Step          Temp          E_pair         E_mol          TotEng         Press          Volume    
        22   300           -71997.318      0             -71602.131      210.80474      21435861     
Loop time of 2.7059e-05 on 16 procs for 0 steps with 10192 atoms

81.3% CPU use with 16 MPI tasks x 1 OpenMP threads

MPI task timing breakdown:
Section |  min time  |  avg time  |  max time  |%varavg| %total
---------------------------------------------------------------
Pair    | 0          | 0          | 0          |   0.0 |  0.00
Neigh   | 0          | 0          | 0          |   0.0 |  0.00
Comm    | 0          | 0          | 0          |   0.0 |  0.00
Output  | 0          | 0          | 0          |   0.0 |  0.00
Modify  | 0          | 0          | 0          |   0.0 |  0.00
Other   |            | 2.706e-05  |            |       |100.00

Nlocal:            637 ave         643 max         631 min
Histogram: 4 0 0 1 3 2 2 0 1 3
Nghost:           2409 ave        2415 max        2403 min
Histogram: 3 1 0 2 1 4 1 0 0 4
Neighs:              0 ave           0 max           0 min
Histogram: 16 0 0 0 0 0 0 0 0 0

Total # of neighbors = 0
Ave neighs/atom = 0
Neighbor list builds = 0
Dangerous builds = 0
WARNING: New thermo_style command, previous thermo_modify settings will be lost (src/output.cpp:903)
WARNING: Dump 2 includes no atom IDs and is not sorted by ID. This may complicate post-processing tasks or visualization (src/dump.cpp:221)
Setting up Verlet run ...
  Unit style    : metal
  Current step  : 0
  Time step     : 0.001
Per MPI rank memory allocation (min/avg/max) = 12.73 | 12.73 | 12.74 Mbytes
   Step         PotEng         KinEng         TotEng           Lx             Ly             Lz      
         0  -71997.318      395.18704     -71602.131      200            200            535.89652    
       100  -71849.681      278.08502     -71571.596      200.01992      200.02293      536.16447    
       200  -71823.676      294.65394     -71529.022      200.02657      200.02669      536.43242    
       300  -71828.717      345.93011     -71482.787      200.00817      199.99776      536.70036    
       400  -71806.319      368.50182     -71437.817      200.02107      200.01408      536.96831    
       500  -71760.521      365.69547     -71394.825      200.02965      200.02655      537.23626    
       600  -71678.13       326.47257     -71351.657      200.01437      200.00064      537.50421    
       700  -71693.995      386.7825      -71307.213      200.02497      200.01333      537.77216    
       800  -71646.508      377.06956     -71269.438      200.02759      200.02222      538.04011    
       900  -71641.491      397.27723     -71244.213      200.01108      199.99463      538.30805    
      1000  -71696.758      442.99638     -71253.761      200.02741      200.0097       538.576      
      1100  -71705.308      410.89606     -71294.412      200.02601      200.01575      538.84395    
      1200  -71709.936      383.86047     -71326.076      200.00566      199.98719      539.1119     
      1300  -71736.054      398.01734     -71338.037      200.02355      200.00168      539.37985    
      1400  -71680.995      365.38401     -71315.611      200.02586      200.01427      539.6478     
      1500  -71654.359      374.75192     -71279.607      200.00238      199.98418      539.91574    
      1600  -71681.045      431.45979     -71249.586      200.02131      199.99476      540.18369    
      1700  -71645.111      400.84575     -71244.265      200.0272       200.00753      540.45164    
      1800  -71667.192      399.06036     -71268.132      200.0016       199.98069      540.71959    
      1900  -71696.657      404.39611     -71292.261      200.01659      199.98741      540.98754    
      2000  -71669.792      369.59964     -71300.192      200.02255      199.99712      541.25549    
      2100  -71658.444      377.65829     -71280.786      199.99977      199.97779      541.52343    
      2200  -71667.656      415.95102     -71251.705      200.01267      199.98288      541.79138    
      2300  -71637.381      399.15497     -71238.226      200.01764      199.9873       542.05933    
      2400  -71652.402      403.14551     -71249.257      199.99486      199.96901      542.32728    
      2500  -71670.037      400.90751     -71269.13       200.00855      199.97777      542.59523    
      2600  -71648.491      372.50551     -71275.986      200.01405      199.97993      542.86317    
      2700  -71633.387      377.61358     -71255.773      199.99074      199.96139      543.13112    
      2800  -71637.681      411.25363     -71226.427      200.0021       199.96988      543.39907    
      2900  -71613.55       401.43217     -71212.118      200.01041      199.97216      543.66702    
      3000  -71629.006      405.15509     -71223.851      199.9876       199.95444      543.93497    
      3100  -71647.774      403.1144      -71244.66       199.99536      199.96202      544.20292    
      3200  -71631.486      376.52119     -71254.964      200.0028       199.96204      544.47086    
      3300  -71623.584      381.7066      -71241.878      199.98428      199.9463       544.73881    
      3400  -71618.867      404.36454     -71214.502      199.98974      199.95471      545.00676    
      3500  -71592.698      396.5007      -71196.197      199.99552      199.95284      545.27471    
      3600  -71605.206      407.43123     -71197.775      199.97911      199.93604      545.54266    
      3700  -71610.65       397.6537      -71212.997      199.98428      199.94665      545.81061    
      3800  -71602.903      382.81252     -71220.09       199.98737      199.94495      546.07855    
      3900  -71592.413      384.40272     -71208.01       199.97268      199.92673      546.3465     
      4000  -71592.823      407.20003     -71185.623      199.9777       199.93623      546.61445    
      4100  -71573.389      401.72575     -71171.663      199.97946      199.93631      546.8824     
      4200  -71574.432      401.79053     -71172.642      199.96661      199.9171       547.15035    
      4300  -71576.576      395.54456     -71181.031      199.97172      199.92484      547.4183     
      4400  -71568.708      386.89855     -71181.809      199.96974      199.92511      547.68624    
      4500  -71559.363      388.44386     -71170.919      199.95869      199.90725      547.95419    
      4600  -71556.735      400.63603     -71156.099      199.9645       199.91355      548.22214    
      4700  -71548.21       400.46827     -71147.741      199.95943      199.91297      548.49009    
      4800  -71545.437      395.98111     -71149.456      199.94891      199.89666      548.75804    
      4900  -71545.247      393.36965     -71151.877      199.95621      199.90172      549.02598    
      5000  -71533.584      388.16098     -71145.423      199.94893      199.9001       549.29393    
      5100  -71527.407      396.68227     -71130.724      199.93884      199.8855       549.56188    
      5200  -71517.647      398.23904     -71119.408      199.94655      199.88909      549.82983    
      5300  -71514.115      396.89329     -71117.222      199.93785      199.88572      550.09778    
      5400  -71515.218      395.45342     -71119.765      199.92765      199.87445      550.36573    
      5500  -71507.65       387.93817     -71119.712      199.93547      199.87631      550.63367    
      5600  -71503.321      393.66758     -71109.654      199.92713      199.87084      550.90162    
      5700  -71493.559      398.87586     -71094.683      199.91745      199.86198      551.16957    
      5800  -71483.431      398.31967     -71085.112      199.92381      199.86407      551.43752    
      5900  -71476.283      393.67456     -71082.608      199.91481      199.85701      551.70547    
      6000  -71465.926      384.65963     -71081.266      199.90661      199.84912      551.97342    
      6100  -71465.7        392.60337     -71073.097      199.91199      199.85051      552.24136    
      6200  -71461.314      399.89827     -71061.416      199.90288      199.84199      552.50931    
      6300  -71457.06       401.41126     -71055.649      199.89525      199.83522      552.77726    
      6400  -71446.508      390.24613     -71056.261      199.8992       199.83563      553.04521    
      6500  -71445.468      391.11615     -71054.352      199.89005      199.82654      553.31316    
      6600  -71436.827      393.22256     -71043.604      199.88253      199.82078      553.58111    
      6700  -71421.581      395.08359     -71026.498      199.88547      199.82         553.84905    
      6800  -71416.278      403.11327     -71013.165      199.87687      199.81001      554.117      
      6900  -71410.73       399.78145     -71010.949      199.86939      199.8054       554.38495    
      7000  -71407.477      392.79001     -71014.687      199.87015      199.80424      554.6529     
      7100  -71403.146      390.41781     -71012.728      199.86165      199.79256      554.92085    
      7200  -71392.935      391.80311     -71001.132      199.85517      199.78842      555.18879    
      7300  -71380.555      396.54052     -70984.015      199.85508      199.7868       555.45674    
      7400  -71375.554      403.76263     -70971.792      199.84646      199.77391      555.72469    
      7500  -71369.084      401.7802      -70967.303      199.84051      199.76939      555.99264    
      7600  -71363.393      395.82521     -70967.567      199.83788      199.76806      556.26059    
      7700  -71359.487      393.82075     -70965.666      199.82846      199.75484      556.52854    
      7800  -71349.402      390.79097     -70958.611      199.82467      199.75066      556.79648    
      7900  -71335.544      389.56595     -70945.978      199.82101      199.74795      557.06443    
      8000  -71329.168      396.48593     -70932.682      199.81081      199.73562      557.33238    
      8100  -71317.919      396.03076     -70921.888      199.80832      199.7318       557.60033    
      8200  -71308.648      394.68948     -70913.958      199.80306      199.72754      557.86828    
      8300  -71308.498      395.71054     -70912.787      199.793        199.71625      558.13623    
      8400  -71304.115      394.61731     -70909.497      199.79144      199.71281      558.40417    
      8500  -71292.781      392.54631     -70900.235      199.78495      199.70637      558.67212    
      8600  -71285.798      397.95609     -70887.842      199.77491      199.69659      558.94007    
      8700  -71269.912      394.31041     -70875.601      199.77305      199.69294      559.20802    
      8800  -71263.761      397.35546     -70866.405      199.76621      199.68496      559.47597    
      8900  -71253.361      393.7166      -70859.645      199.75704      199.67665      559.74391    
      9000  -71251.682      395.86506     -70855.817      199.75322      199.67322      560.01186    
      9100  -71244.315      393.17024     -70851.145      199.74587      199.66417      560.27981    
      9200  -71231.378      390.65179     -70840.726      199.7379       199.65542      560.54776    
      9300  -71219.266      395.3299      -70823.936      199.73328      199.65115      560.81571    
      9400  -71212.141      397.2216      -70814.919      199.72502      199.64318      561.08366    
      9500  -71207.852      397.23119     -70810.621      199.71638      199.63472      561.3516     
      9600  -71198.477      391.43214     -70807.045      199.71133      199.62941      561.61955    
      9700  -71191.867      393.76174     -70798.105      199.70358      199.62059      561.8875     
      9800  -71180.108      394.58278     -70785.525      199.69457      199.61191      562.15545    
      9900  -71168.348      393.68407     -70774.664      199.68842      199.60675      562.4234     
     10000  -71161.365      396.47616     -70764.888      199.68019      199.59793      562.69135    
     10100  -71154.763      397.56387     -70757.199      199.67173      199.58844      562.95929    
     10200  -71145.785      390.38388     -70755.401      199.66515      199.5827       563.22724    
     10300  -71136.914      389.50676     -70747.407      199.65569      199.57388      563.49519    
     10400  -71123.907      393.01841     -70730.889      199.64739      199.56457      563.76314    
     10500  -71113.255      394.83164     -70718.424      199.642        199.55865      564.03109    
     10600  -71104.057      397.40737     -70706.65       199.63161      199.54864      564.29904    
     10700  -71096.248      398.90187     -70697.346      199.62246      199.54045      564.56698    
     10800  -71086.984      392.34886     -70694.635      199.6167       199.534        564.83493    
     10900  -71082.76       394.34425     -70688.416      199.60593      199.52227      565.10288    
     11000  -71068.384      393.82762     -70674.556      199.59741      199.51552      565.37083    
     11100  -71050.875      390.65052     -70660.225      199.59043      199.5075       565.63878    
     11200  -71047.516      399.4616      -70648.054      199.57939      199.49514      565.90672    
     11300  -71041.078      401.12056     -70639.958      199.57114      199.48883      566.17467    
     11400  -71032.977      395.16494     -70637.812      199.56246      199.47945      566.44262    
     11500  -71019.473      390.62625     -70628.847      199.55208      199.46711      566.71057    
     11600  -71009.613      395.59299     -70614.02       199.54421      199.45986      566.97852    
     11700  -70997.193      397.88355     -70599.31       199.53386      199.45         567.24647    
     11800  -70985.281      398.8515      -70586.43       199.52281      199.43772      567.51441    
     11900  -70981.603      401.51614     -70580.086      199.51441      199.42972      567.78236    
     12000  -70969.062      393.01309     -70576.049      199.50349      199.41933      568.05031    
     12100  -70955.127      389.72379     -70565.403      199.49288      199.40721      568.31826    
     12200  -70946.828      396.19978     -70550.628      199.48367      199.39851      568.58621    
     12300  -70933.638      397.24103     -70536.397      199.472        199.38739      568.85416    
     12400  -70918.301      393.34815     -70524.953      199.46166      199.37458      569.1221     
     12500  -70914.009      395.96717     -70518.041      199.4528       199.36581      569.39005    
     12600  -70908.322      391.77962     -70516.542      199.4392       199.35493      569.658      
     12700  -70894.069      389.68478     -70504.384      199.42831      199.34289      569.92595    
     12800  -70878.132      390.87503     -70487.257      199.42052      199.33291      570.1939     
     12900  -70872.056      399.36917     -70472.687      199.40658      199.32013      570.46185    
     13000  -70859.982      398.30645     -70461.675      199.39509      199.30906      570.72979    
     13100  -70852.111      395.44685     -70456.664      199.38638      199.29855      570.99774    
     13200  -70847.517      397.38092     -70450.136      199.37201      199.28415      571.26569    
     13300  -70829.857      393.27296     -70436.584      199.36145      199.27385      571.53364    
     13400  -70813.803      391.41719     -70422.386      199.35109      199.26202      571.80159    
     13500  -70805.391      396.47315     -70408.917      199.33495      199.24775      572.06953    
     13600  -70797.289      399.72364     -70397.565      199.32545      199.23741      572.33748    
     13700  -70784.266      395.70597     -70388.56       199.31409      199.22298      572.60543    
     13800  -70774.376      390.15627     -70384.22       199.29859      199.20871      572.87338    
     13900  -70761.858      389.05064     -70372.807      199.28752      199.19877      573.14133    
     14000  -70750.993      396.84173     -70354.152      199.27439      199.18253      573.40928    
     14100  -70741.378      399.58706     -70341.791      199.26031      199.16807      573.67722    
     14200  -70729.118      395.78824     -70333.33       199.24777      199.1575       573.94517    
     14300  -70719.503      394.99896     -70324.504      199.23406      199.14001      574.21312    
     14400  -70708.331      394.11038     -70314.221      199.22114      199.12571      574.48107    
     14500  -70692.347      396.00091     -70296.346      199.20686      199.11401      574.74902    
     14600  -70681.109      399.7329      -70281.376      199.19161      199.09682      575.01697    
     14700  -70670.169      396.10363     -70274.065      199.17928      199.0826       575.28491    
     14800  -70660.826      394.37759     -70266.448      199.16451      199.06899      575.55286    
     14900  -70646.659      393.5739      -70253.085      199.14865      199.05257      575.82081    
     15000  -70629.303      398.28136     -70231.022      199.13585      199.03881      576.08876    
     15100  -70621.199      399.4067      -70221.792      199.12103      199.02322      576.35671    
     15200  -70610.763      394.08859     -70216.674      199.10588      199.00682      576.62466    
     15300  -70599.454      392.41269     -70207.042      199.09204      198.9924       576.8926     
     15400  -70588.15       395.57146     -70192.579      199.07606      198.97675      577.16055    
     15500  -70575.341      400.34448     -70174.997      199.05986      198.96025      577.4285     
     15600  -70558.999      395.27608     -70163.723      199.0461       198.94454      577.69645    
     15700  -70551.081      390.1646      -70160.917      199.02989      198.92812      577.9644     
     15800  -70543.792      395.34317     -70148.449      199.01229      198.91208      578.23234    
     15900  -70528.3        396.76031     -70131.54       198.99812      198.89628      578.50029    
     16000  -70514.973      397.86047     -70117.113      198.98098      198.87895      578.76824    
     16100  -70511.69       400.63992     -70111.05       198.96313      198.86222      579.03619    
     16200  -70489.346      384.37848     -70104.967      198.94902      198.84585      579.30414    
     16300  -70481.18       393.41912     -70087.761      198.93087      198.82783      579.57209    
     16400  -70468.086      398.0499      -70070.036      198.91184      198.81182      579.84003    
     16500  -70448.037      392.41019     -70055.627      198.89695      198.79576      580.10798    
     16600  -70441.647      398.54516     -70043.101      198.87774      198.77654      580.37593    
     16700  -70429.263      392.59668     -70036.666      198.86098      198.75935      580.64388    
     16800  -70417.654      388.35192     -70029.302      198.84514      198.74135      580.91183    
     16900  -70406.385      393.40711     -70012.978      198.82447      198.72294      581.17978    
     17000  -70389.746      394.10176     -69995.644      198.80753      198.70645      581.44772    
     17100  -70377.579      396.70076     -69980.879      198.79052      198.68748      581.71567    
     17200  -70364.282      397.74053     -69966.541      198.76973      198.66851      581.98362    
     17300  -70353.725      397.95492     -69955.771      198.75261      198.65108      582.25157    
     17400  -70345.734      393.7591      -69951.975      198.73474      198.63031      582.51952    
     17500  -70328.687      390.00599     -69938.681      198.71442      198.61171      582.78747    
     17600  -70310.911      391.91932     -69918.991      198.69596      198.59386      583.05541    
     17700  -70293.294      392.13347     -69901.16       198.67632      198.57324      583.32336    
     17800  -70281.866      395.44666     -69886.419      198.6562       198.55265      583.59131    
     17900  -70277.066      397.63345     -69879.432      198.63719      198.53298      583.85926    
     18000  -70265.649      394.777       -69870.872      198.61663      198.51246      584.12721    
     18100  -70247.347      391.9027      -69855.444      198.59615      198.49189      584.39515    
     18200  -70230.428      393.13164     -69837.297      198.57601      198.47221      584.6631     
     18300  -70220.911      398.86191     -69822.049      198.55404      198.45092      584.93105    
     18400  -70207.963      397.78873     -69810.174      198.5334       198.43014      585.199      
     18500  -70192.595      392.21143     -69800.384      198.51362      198.40884      585.46695    
     18600  -70187.296      392.56933     -69794.726      198.49207      198.38646      585.7349     
     18700  -70176.086      391.34063     -69784.745      198.47091      198.36523      586.00284    
     18800  -70157.943      392.6267      -69765.316      198.4495       198.34412      586.27079    
     18900  -70141.334      393.87788     -69747.456      198.42726      198.32178      586.53874    
     19000  -70124.87       393.75845     -69731.111      198.40574      198.3005       586.80669    
     19100  -70110.963      397.36951     -69713.594      198.38345      198.27893      587.07464    
     19200  -70095.721      397.00117     -69698.72       198.36172      198.25527      587.34259    
     19300  -70086.099      394.20296     -69691.896      198.34058      198.23263      587.61053    
     19400  -70078.306      394.68133     -69683.625      198.31639      198.211        587.87848    
     19500  -70056.769      388.52887     -69668.24       198.29385      198.18741      588.14643    
     19600  -70046.388      397.42066     -69648.968      198.27285      198.16333      588.41438    
     19700  -70024.778      392.81683     -69631.961      198.24816      198.14077      588.68233    
     19800  -70017.494      399.57889     -69617.915      198.22455      198.11706      588.95028    
     19900  -70000.279      395.24863     -69605.03       198.20292      198.09186      589.21822    
     20000  -69987.116      392.5293      -69594.586      198.17775      198.06781      589.48617    
     20100  -69981.23       391.37614     -69589.854      198.15314      198.04412      589.75412    
     20200  -69963.125      388.29416     -69574.831      198.13051      198.01882      590.02207    
     20300  -69948.4        393.41746     -69554.983      198.10524      197.99399      590.29002    
     20400  -69934.756      398.36625     -69536.39       198.08077      197.96932      590.55796    
     20500  -69916.373      395.96549     -69520.407      198.05718      197.9439       590.82591    
     20600  -69906.374      396.21053     -69510.164      198.03156      197.91807      591.09386    
     20700  -69895.859      392.43255     -69503.427      198.00724      197.89266      591.36181    
     20800  -69878.654      391.44126     -69487.213      197.98292      197.86768      591.62976    
     20900  -69863.389      394.54178     -69468.847      197.95714      197.8415       591.89771    
     21000  -69849.396      396.07514     -69453.321      197.93332      197.81577      592.16565    
     21100  -69828.176      389.59789     -69438.578      197.90748      197.79023      592.4336     
     21200  -69817.479      397.90464     -69419.575      197.8812       197.76419      592.70155    
     21300  -69794.101      394.32611     -69399.775      197.85756      197.73808      592.9695     
     21400  -69790.769      400.73012     -69390.039      197.83186      197.71093      593.23745    
     21500  -69777.908      395.61981     -69382.288      197.8049       197.68522      593.5054     
     21600  -69759.747      390.51467     -69369.233      197.77984      197.66022      593.77334    
     21700  -69744.352      395.09709     -69349.254      197.75353      197.63208      594.04129    
     21800  -69730.621      399.06434     -69331.556      197.72669      197.6061       594.30924    
     21900  -69718.716      397.22234     -69321.494      197.70106      197.57997      594.57719    
     22000  -69704.343      392.78506     -69311.558      197.67522      197.55151      594.84514    
     22100  -69688.871      391.84588     -69297.025      197.64834      197.52623      595.11309    
     22200  -69675.043      397.74025     -69277.303      197.62148      197.50002      595.38103    
     22300  -69659.146      400.5071      -69258.638      197.59568      197.47133      595.64898    
     22400  -69646.53       398.40759     -69248.123      197.56822      197.4462       595.91693    
     22500  -69633.739      395.56604     -69238.173      197.54074      197.41988      596.18488    
     22600  -69616.544      392.74607     -69223.798      197.51543      197.39201      596.45283    
     22700  -69593.87       389.53776     -69204.333      197.48826      197.36537      596.72077    
     22800  -69576.619      392.31207     -69184.307      197.46113      197.33954      596.98872    
     22900  -69571.494      399.59137     -69171.903      197.43507      197.31165      597.25667    
     23000  -69550.195      389.27746     -69160.918      197.4075       197.2847       597.52462    
     23100  -69544.413      397.47762     -69146.936      197.38102      197.25888      597.79257    
     23200  -69520.343      390.14963     -69130.193      197.35384      197.23074      598.06052    
     23300  -69506.994      399.015       -69107.979      197.3267       197.20403      598.32846    
     23400  -69488.961      400.17801     -69088.783      197.30007      197.17735      598.59641    
     23500  -69476.873      399.7335      -69077.139      197.27281      197.1483       598.86436    
     23600  -69463.766      396.29797     -69067.468      197.24596      197.12201      599.13231    
     23700  -69447.833      392.85543     -69054.978      197.21798      197.09477      599.40026    
     23800  -69435.075      395.55296     -69039.523      197.19022      197.06721      599.66821    
     23900  -69416.869      398.43439     -69018.435      197.16252      197.04071      599.93615    
     24000  -69403.476      403.86675     -68999.609      197.13535      197.01265      600.2041     
     24100  -69390.152      396.30158     -68993.85       197.10909      196.98376      600.47205    
     24200  -69380.686      399.07528     -68981.611      197.08159      196.95692      600.74       
     24300  -69353.838      392.03244     -68961.806      197.05394      196.93022      601.00795    
     24400  -69340.122      399.29431     -68940.827      197.02619      196.903        601.2759     
     24500  -69321.362      396.11061     -68925.252      196.99871      196.87637      601.54384    
     24600  -69310.557      395.24979     -68915.307      196.97198      196.84857      601.81179    
     24700  -69297.401      391.74305     -68905.658      196.94513      196.82002      602.07974    
     24800  -69276.799      386.98497     -68889.814      196.9188       196.79365      602.34769    
     24900  -69267.922      396.05197     -68871.87       196.89192      196.76563      602.61564    
     25000  -69246.06       394.47994     -68851.58       196.86557      196.73784      602.88358    
     25100  -69224.99       392.08322     -68832.906      196.83796      196.71289      603.15153    
     25200  -69213.599      398.41528     -68815.183      196.81028      196.68551      603.41948    
     25300  -69191.762      396.31939     -68795.443      196.78458      196.65766      603.68743    
     25400  -69177.001      400.5316      -68776.469      196.75666      196.63191      603.95538    
     25500  -69164.813      396.84656     -68767.966      196.72996      196.60379      604.22333    
     25600  -69150.64       393.0413      -68757.599      196.70436      196.57545      604.49127    
     25700  -69136.532      393.35273     -68743.179      196.67655      196.5491       604.75922    
     25800  -69120.393      396.96284     -68723.43       196.65005      196.52116      605.02717    
     25900  -69098.497      395.37817     -68703.119      196.62483      196.49314      605.29512    
     26000  -69086.4        398.33567     -68688.064      196.5972       196.46727      605.56307    
     26100  -69073.892      393.34708     -68680.545      196.56955      196.44038      605.83102    
     26200  -69057.966      391.35987     -68666.606      196.54339      196.4139       606.09896    
     26300  -69037.315      392.1903      -68645.125      196.51674      196.38759      606.36691    
     26400  -69018.35       394.58702     -68623.763      196.49061      196.36008      606.63486    
     26500  -69002.408      394.73503     -68607.673      196.46605      196.33305      606.90281    
     26600  -68993.396      397.83437     -68595.562      196.43991      196.30542      607.17076    
     26700  -68977.293      392.20378     -68585.09       196.41475      196.27877      607.43871    
     26800  -68955.344      388.14228     -68567.202      196.38912      196.25296      607.70665    
     26900  -68940.887      393.76841     -68547.119      196.3625       196.22714      607.9746     
     27000  -68926.46       398.17231     -68528.288      196.33683      196.20202      608.24255    
     27100  -68901.42       390.225       -68511.195      196.31091      196.17616      608.5105     
     27200  -68889.375      393.38066     -68495.994      196.28659      196.14962      608.77845    
     27300  -68869.886      389.02992     -68480.856      196.26225      196.12287      609.04639    
     27400  -68861.607      396.80148     -68464.806      196.23635      196.09767      609.31434    
     27500  -68848.477      398.31727     -68450.16       196.212        196.07186      609.58229    
     27600  -68828.605      391.7313      -68436.874      196.1867       196.04653      609.85024    
     27700  -68813.632      391.20528     -68422.426      196.16096      196.02263      610.11819    
     27800  -68791.924      391.39574     -68400.529      196.13684      195.99676      610.38614    
     27900  -68773.789      395.98974     -68377.799      196.11169      195.97289      610.65408    
     28000  -68763.114      400.18321     -68362.931      196.08589      195.94979      610.92203    
     28100  -68749.085      396.64702     -68352.438      196.06229      195.92395      611.18998    
     28200  -68726.281      389.08062     -68337.201      196.03923      195.89996      611.45793    
     28300  -68710.481      392.25699     -68318.224      196.01516      195.87504      611.72588    
     28400  -68692.188      393.92293     -68298.265      195.99249      195.8502       611.99383    
     28500  -68678.073      395.3045      -68282.769      195.9685       195.82752      612.26177    
     28600  -68661.372      393.24559     -68268.127      195.94315      195.80421      612.52972    
     28700  -68647.652      395.17994     -68252.472      195.92009      195.78184      612.79767    
     28800  -68628.763      394.37537     -68234.388      195.89569      195.75899      613.06562    
     28900  -68610.557      400.44541     -68210.112      195.87254      195.7354       613.33357    
     29000  -68593.138      402.22626     -68190.912      195.85075      195.71141      613.60152    
     29100  -68575.735      396.12636     -68179.608      195.8276       195.68729      613.86946    
     29200  -68563.902      397.14291     -68166.759      195.80539      195.66361      614.13741    
     29300  -68543.598      391.23778     -68152.36       195.78275      195.64035      614.40536    
     29400  -68525.137      392.44927     -68132.688      195.75884      195.61832      614.67331    
     29500  -68506.947      397.69931     -68109.247      195.73451      195.59697      614.94126    
     29600  -68493.086      400.83213     -68092.253      195.71264      195.57338      615.2092     
     29700  -68480.613      394.63176     -68085.981      195.69001      195.55077      615.47715    
     29800  -68463.911      394.57359     -68069.337      195.66604      195.52921      615.7451     
     29900  -68444.524      395.68095     -68048.843      195.64547      195.50596      616.01305    
     30000  -68427.818      399.06926     -68028.749      195.62346      195.48281      616.281      
     30100  -68406.189      392.45919     -68013.729      195.60048      195.46194      616.54895    
     30200  -68394.514      389.76556     -68004.748      195.57988      195.43862      616.81689    
     30300  -68378.638      390.876       -67987.762      195.55824      195.41657      617.08484    
     30400  -68356.991      391.98061     -67965.011      195.53522      195.39632      617.35279    
     30500  -68339.463      394.29224     -67945.171      195.51452      195.37397      617.62074    
     30600  -68324.222      397.21452     -67927.007      195.49229      195.35292      617.88869    
     30700  -68307.231      395.92797     -67911.303      195.46918      195.3328       618.15664    
     30800  -68290          391.17149     -67898.829      195.44995      195.31017      618.42458    
     30900  -68276.513      392.35458     -67884.158      195.42848      195.28826      618.69253    
     31000  -68255.861      396.36791     -67859.494      195.4069       195.26703      618.96048    
     31100  -68233.314      395.43345     -67837.881      195.38838      195.24337      619.22843    
     31200  -68217.967      395.90236     -67822.065      195.36635      195.22155      619.49638    
     31300  -68199.851      390.44782     -67809.403      195.34367      195.20232      619.76433    
     31400  -68187.016      392.14512     -67794.871      195.32305      195.18047      620.03227    
     31500  -68168.69       396.91984     -67771.77       195.30047      195.16017      620.30022    
     31600  -68146.85       397.97869     -67748.872      195.27877      195.13997      620.56817    
     31700  -68138.904      403.2984      -67735.605      195.25998      195.11698      620.83612    
     31800  -68116.624      393.2266      -67723.398      195.23895      195.09552      621.10407    
     31900  -68097.866      392.96358     -67704.903      195.21847      195.07459      621.37201    
     32000  -68081.552      397.30989     -67684.242      195.19959      195.05189      621.63996    
     32100  -68060.986      394.25921     -67666.726      195.17797      195.03089      621.90791    
     32200  -68050.241      391.05478     -67659.186      195.15784      195.01118      622.17586    
     32300  -68028.127      385.63881     -67642.488      195.13819      194.98943      622.44381    
     32400  -68009.685      392.30474     -67617.38       195.11676      194.9695       622.71176    
     32500  -67989.164      394.36171     -67594.802      195.09683      194.9496       622.9797     
     32600  -67978.591      401.69335     -67576.898      195.0768       194.92749      623.24765    
     32700  -67959.289      394.80522     -67564.484      195.05668      194.90777      623.5156     
     32800  -67944.778      394.76727     -67550.011      195.03658      194.88729      623.78355    
     32900  -67924.333      398.24442     -67526.088      195.01692      194.86579      624.0515     
     33000  -67899.678      397.59195     -67502.086      194.99739      194.84582      624.31945    
     33100  -67884.168      396.58109     -67487.587      194.97791      194.82442      624.58739    
     33200  -67868.209      392.69718     -67475.512      194.95796      194.80427      624.85534    
     33300  -67854.707      394.86257     -67459.844      194.93723      194.78507      625.12329    
     33400  -67836.765      396.87902     -67439.886      194.91685      194.76569      625.39124    
     33500  -67813.36       400.54004     -67412.819      194.89605      194.74655      625.65919    
     33600  -67796.069      402.65724     -67393.411      194.87622      194.72758      625.92714    
     33700  -67775.142      395.2092      -67379.933      194.85709      194.70742      626.19508    
     33800  -67761.635      395.75268     -67365.882      194.83783      194.68671      626.46303    
     33900  -67743.802      393.65105     -67350.151      194.81938      194.66746      626.73098    
     34000  -67726.388      394.18744     -67332.201      194.79991      194.64701      626.99893    
     34100  -67708.552      399.51512     -67309.037      194.78082      194.62723      627.26688    
     34200  -67686.387      401.56038     -67284.827      194.76089      194.60911      627.53482    
     34300  -67669.793      397.77277     -67272.02       194.7413       194.58889      627.80277    
     34400  -67653.92       395.40014     -67258.52       194.72202      194.56963      628.07072    
     34500  -67637.317      395.43786     -67241.879      194.70156      194.55135      628.33867    
     34600  -67616.296      393.20243     -67223.094      194.68186      194.53123      628.60662    
     34700  -67598.394      399.34624     -67199.048      194.66265      194.51227      628.87457    
     34800  -67576.135      400.05186     -67176.083      194.64256      194.49272      629.14251    
     34900  -67565.231      401.33503     -67163.896      194.62361      194.47199      629.41046    
     35000  -67545.24       394.7419      -67150.498      194.60536      194.45205      629.67841    
     35100  -67529.907      395.52654     -67134.381      194.58556      194.43207      629.94636    
     35200  -67505.628      389.06183     -67116.567      194.56613      194.41161      630.21431    
     35300  -67490.817      396.90562     -67093.911      194.54671      194.39324      630.48226    
     35400  -67472.018      401.56486     -67070.453      194.52523      194.37406      630.7502     
     35500  -67454.485      397.16058     -67057.324      194.50623      194.35522      631.01815    
     35600  -67436.291      391.24171     -67045.049      194.48638      194.33661      631.2861     
     35700  -67422.726      396.53139     -67026.195      194.46569      194.31669      631.55405    
     35800  -67400.251      396.28234     -67003.968      194.44909      194.29671      631.822      
     35900  -67376.301      395.15436     -66981.147      194.42937      194.27612      632.08995    
     36000  -67364.175      399.98743     -66964.187      194.40963      194.25636      632.35789    
     36100  -67346.501      390.89758     -66955.604      194.3916       194.23662      632.62584    
     36200  -67329.299      392.96656     -66936.332      194.37047      194.21671      632.89379    
     36300  -67307.47       396.29389     -66911.176      194.35087      194.19809      633.16174    
     36400  -67292.59       402.71935     -66889.871      194.33175      194.17763      633.42969    
     36500  -67269.336      393.80641     -66875.529      194.31138      194.15766      633.69763    
     36600  -67252.128      390.54707     -66861.581      194.29132      194.13864      633.96558    
     36700  -67237.38       395.50374     -66841.876      194.27162      194.11832      634.23353    
     36800  -67213.552      394.56222     -66818.99       194.25135      194.09792      634.50148    
     36900  -67198.384      399.38861     -66798.996      194.23134      194.07799      634.76943    
     37000  -67179.897      395.10728     -66784.789      194.21217      194.05671      635.03738    
     37100  -67164.081      394.71093     -66769.37       194.19255      194.03536      635.30532    
     37200  -67143.087      393.49597     -66749.591      194.17294      194.01543      635.57327    
     37300  -67120.628      392.28519     -66728.343      194.15292      193.99415      635.84122    
     37400  -67109.885      403.82566     -66706.059      194.13297      193.97356      636.10917    
     37500  -67084.301      397.59126     -66686.71       194.11288      193.95395      636.37712    
     37600  -67069.229      392.85159     -66676.377      194.09153      193.93319      636.64507    
     37700  -67048.533      389.07489     -66659.458      194.07163      193.91345      636.91301    
     37800  -67027.347      391.01758     -66636.329      194.05082      193.89334      637.18096    
     37900  -67011.96       400.09836     -66611.861      194.03088      193.87135      637.44891    
     38000  -66990.912      398.29447     -66592.618      194.0126       193.84999      637.71686    
     38100  -66974.674      398.43441     -66576.24       193.99227      193.82804      637.98481    
     38200  -66959.764      398.68935     -66561.074      193.97275      193.80624      638.25276    
     38300  -66942.283      398.77681     -66543.506      193.95271      193.78593      638.5207     
     38400  -66914.683      391.10875     -66523.574      193.93045      193.76608      638.78865    
     38500  -66899.168      400.91174     -66498.256      193.9087       193.74578      639.0566     
     38600  -66875.238      399.69735     -66475.54       193.88819      193.72622      639.32455    
     38700  -66859.769      395.89204     -66463.877      193.86689      193.70483      639.5925     
     38800  -66843.156      394.86475     -66448.291      193.8468       193.68334      639.86044    
     38900  -66823.615      393.84976     -66429.766      193.82733      193.66294      640.12839    
     39000  -66803.678      395.94676     -66407.731      193.8064       193.64027      640.39634    
     39100  -66782.132      396.62933     -66385.503      193.78636      193.62026      640.66429    
     39200  -66763.435      392.21092     -66371.224      193.76535      193.59963      640.93224    
     39300  -66752.286      394.43147     -66357.854      193.74361      193.57835      641.20019    
     39400  -66730.853      393.44931     -66337.404      193.7236       193.55885      641.46813    
     39500  -66707.613      395.67333     -66311.94       193.70147      193.53748      641.73608    
     39600  -66688.341      396.9864      -66291.355      193.67998      193.51739      642.00403    
     39700  -66673.245      399.24724     -66273.997      193.65932      193.49648      642.27198    
     39800  -66649.631      392.37631     -66257.255      193.63841      193.47452      642.53993    
     39900  -66637.007      397.66614     -66239.341      193.6174       193.45311      642.80788    
     40000  -66618.592      396.76109     -66221.831      193.59659      193.43175      643.07582    
     40100  -66599.568      391.55497     -66208.013      193.57549      193.40966      643.34377    
     40200  -66577.312      388.75096     -66188.561      193.55371      193.38797      643.61172    
     40300  -66559.529      397.78306     -66161.746      193.53288      193.36678      643.87967    
     40400  -66538.838      398.50482     -66140.333      193.51056      193.34423      644.14762    
     40500  -66520.576      396.3592      -66124.216      193.48956      193.32271      644.41557    
     40600  -66499.835      392.51324     -66107.322      193.46739      193.30159      644.68351    
     40700  -66485.828      398.22395     -66087.604      193.44431      193.28037      644.95146    
     40800  -66461.628      394.09907     -66067.529      193.42253      193.25975      645.21941    
     40900  -66439.623      391.60175     -66048.021      193.39988      193.23801      645.48736    
     41000  -66423.287      395.14898     -66028.138      193.37889      193.21616      645.75531    
     41100  -66404.98       398.19367     -66006.786      193.35781      193.193        646.02325    
     41200  -66386.354      400.56618     -65985.788      193.33708      193.17012      646.2912     
     41300  -66362.105      393.52393     -65968.581      193.31643      193.14711      646.55915    
     41400  -66347.848      394.30217     -65953.546      193.29338      193.12526      646.8271     
     41500  -66325.378      388.8418      -65936.536      193.27007      193.10432      647.09505    
     41600  -66309.251      395.182       -65914.069      193.24741      193.08272      647.363      
     41700  -66287.067      400.05498     -65887.012      193.22438      193.06092      647.63094    
     41800  -66266.801      397.28479     -65869.516      193.20158      193.03855      647.89889    
     41900  -66250.191      394.43187     -65855.759      193.18056      193.01546      648.16684    
     42000  -66234.591      397.88257     -65836.709      193.15759      192.99195      648.43479    
     42100  -66216.534      399.30523     -65817.229      193.13537      192.96878      648.70274    
     42200  -66191.222      392.07985     -65799.142      193.11446      192.94487      648.97069    
     42300  -66176.678      391.48001     -65785.198      193.09082      192.9209       649.23863    
     42400  -66157.193      388.92592     -65768.267      193.06838      192.89875      649.50658    
     42500  -66134.64       392.64489     -65741.995      193.04588      192.87516      649.77453    
     42600  -66117.398      400.23649     -65717.161      193.02165      192.85231      650.04248    
     42700  -66096.563      398.40688     -65698.156      192.99768      192.83139      650.31043    
     42800  -66078.137      396.39292     -65681.744      192.97477      192.80699      650.57838    
     42900  -66058.031      392.558       -65665.473      192.9523       192.78312      650.84632    
     43000  -66035.251      385.71156     -65649.539      192.92949      192.75996      651.11427    
     43100  -66020.563      390.10198     -65630.461      192.90749      192.73464      651.38222    
     43200  -65997.474      395.43542     -65602.038      192.88514      192.71035      651.65017    
     43300  -65975.017      396.0708      -65578.946      192.86237      192.68719      651.91812    
     43400  -65953.296      391.3182      -65561.978      192.83875      192.66264      652.18606    
     43500  -65942.143      394.92832     -65547.214      192.81533      192.64008      652.45401    
     43600  -65922.102      394.74314     -65527.359      192.79145      192.6171       652.72196    
     43700  -65902.851      397.74358     -65505.107      192.76772      192.59264      652.98991    
     43800  -65879.773      396.47968     -65483.293      192.74516      192.56935      653.25786    
     43900  -65863.12       399.96083     -65463.159      192.72133      192.54559      653.52581    
     44000  -65842.558      394.04117     -65448.517      192.6973       192.52208      653.79375    
     44100  -65823.777      388.67895     -65435.098      192.67373      192.49898      654.0617     
     44200  -65808.19       396.25747     -65411.932      192.64989      192.47587      654.32965    
     44300  -65783.244      396.62166     -65386.622      192.62584      192.45233      654.5976     
     44400  -65761.73       398.09466     -65363.635      192.60339      192.42879      654.86555    
     44500  -65741.197      396.39237     -65344.805      192.58048      192.4044       655.1335     
     44600  -65723.396      389.12229     -65334.273      192.5571       192.38009      655.40144    
     44700  -65702.099      389.11492     -65312.984      192.53451      192.35688      655.66939    
     44800  -65679.726      393.39574     -65286.33       192.50965      192.33298      655.93734    
     44900  -65658.383      396.3726      -65262.01       192.48614      192.31044      656.20529    
     45000  -65636.303      394.69256     -65241.61       192.46183      192.2871       656.47324    
     45100  -65621.757      394.32307     -65227.434      192.43678      192.26412      656.74119    
     45200  -65602.231      389.68671     -65212.544      192.41395      192.23973      657.00913    
     45300  -65581.163      390.60521     -65190.558      192.39066      192.21512      657.27708    
     45400  -65561.505      395.00456     -65166.501      192.36595      192.19148      657.54503    
     45500  -65541.467      398.70615     -65142.76       192.34368      192.16637      657.81298    
     45600  -65519.714      399.01234     -65120.702      192.3201       192.1427       658.08093    
     45700  -65504.885      398.43364     -65106.451      192.29462      192.11854      658.34887    
     45800  -65483.449      392.62299     -65090.826      192.27232      192.09518      658.61682    
     45900  -65466.223      396.38611     -65069.836      192.24678      192.07116      658.88477    
     46000  -65442.722      396.74401     -65045.978      192.2224       192.04845      659.15272    
     46100  -65412.7        392.85048     -65019.85       192.19895      192.02411      659.42067    
     46200  -65394.748      398.00487     -64996.743      192.17374      192.00052      659.68862    
     46300  -65380.828      398.76121     -64982.066      192.15034      191.97781      659.95656    
     46400  -65360.829      394.42303     -64966.406      192.12694      191.9519       660.22451    
     46500  -65339.401      392.81887     -64946.582      192.10363      191.92791      660.49246    
     46600  -65322.479      396.12202     -64926.357      192.07989      191.9036       660.76041    
     46700  -65300.179      393.78205     -64906.397      192.05638      191.87906      661.02836    
     46800  -65279.773      394.10806     -64885.665      192.03153      191.8557       661.29631    
     46900  -65260.282      395.78237     -64864.5        192.00694      191.83273      661.56425    
     47000  -65237.653      394.02336     -64843.63       191.98266      191.80808      661.8322     
     47100  -65220.643      396.0567      -64824.586      191.95846      191.78417      662.10015    
     47200  -65199.221      391.62353     -64807.597      191.93519      191.75945      662.3681     
     47300  -65183.373      393.70762     -64789.665      191.91225      191.73336      662.63605    
     47400  -65159.379      392.62857     -64766.751      191.8885       191.70899      662.904      
     47500  -65133.971      397.36609     -64736.605      191.86431      191.68506      663.17194    
     47600  -65111.89       398.02069     -64713.869      191.83965      191.66058      663.43989    
     47700  -65093.736      396.02909     -64697.707      191.81379      191.63816      663.70784    
     47800  -65075.592      395.38638     -64680.206      191.78897      191.61534      663.97579    
     47900  -65053.505      394.31506     -64659.19       191.7647       191.58956      664.24374    
     48000  -65032.685      395.34846     -64637.337      191.74172      191.56533      664.51168    
     48100  -65014.608      395.89151     -64618.716      191.71897      191.53934      664.77963    
     48200  -64999.159      394.07199     -64605.087      191.69634      191.51306      665.04758    
     48300  -64977.603      394.37189     -64583.231      191.673        191.48905      665.31553    
     48400  -64950.496      393.68971     -64556.806      191.6485       191.46491      665.58348    
     48500  -64935.044      403.21504     -64531.829      191.62387      191.44045      665.85143    
     48600  -64911.794      395.323       -64516.471      191.5992       191.4185       666.11937    
     48700  -64897.344      396.43168     -64500.912      191.57396      191.39435      666.38732    
     48800  -64872.321      394.88724     -64477.434      191.55115      191.36935      666.65527    
     48900  -64849.661      397.45546     -64452.205      191.52793      191.34513      666.92322    
     49000  -64830.452      398.91539     -64431.537      191.50394      191.32039      667.19117    
     49100  -64813.95       396.60059     -64417.349      191.4813       191.29668      667.45912    
     49200  -64787.545      391.06547     -64396.48       191.45665      191.2735       667.72706    
     49300  -64767.654      396.60709     -64371.047      191.43227      191.24939      667.99501    
     49400  -64743.796      397.8355      -64345.96       191.40991      191.22596      668.26296    
     49500  -64722.597      397.08943     -64325.508      191.38568      191.20234      668.53091    
     49600  -64703.932      391.68899     -64312.243      191.36194      191.17837      668.79886    
     49700  -64687.043      394.70426     -64292.339      191.33992      191.15527      669.06681    
     49800  -64664.838      396.66291     -64268.175      191.31507      191.13172      669.33475    
     49900  -64637.932      396.06105     -64241.871      191.29129      191.10907      669.6027     
     50000  -64618.119      400.22836     -64217.891      191.2679       191.08639      669.87065    
     50100  -64601.257      396.61492     -64204.642      191.24291      191.06343      670.1386     
     50200  -64582.805      396.3544      -64186.451      191.22011      191.04014      670.40655    
     50300  -64560.422      395.1949      -64165.227      191.19806      191.01576      670.67449    
     50400  -64538.851      396.66038     -64142.191      191.17514      190.99201      670.94244    
     50500  -64517.452      398.60133     -64118.851      191.15283      190.96738      671.21039    
     50600  -64487.589      389.69139     -64097.898      191.13076      190.94414      671.47834    
     50700  -64471.249      389.96796     -64081.281      191.10621      190.92075      671.74629    
     50800  -64454.657      392.64538     -64062.012      191.08337      190.89853      672.01424    
     50900  -64433.203      394.84974     -64038.354      191.05901      190.87636      672.28218    
     51000  -64409.951      401.21523     -64008.735      191.03481      190.85376      672.55013    
     51100  -64385.068      402.00803     -63983.06       191.01204      190.8316       672.81808    
     51200  -64364.404      396.12781     -63968.277      190.98813      190.80884      673.08603    
     51300  -64346.677      396.50754     -63950.169      190.96544      190.78594      673.35398    
     51400  -64327.119      395.43914     -63931.679      190.94359      190.76209      673.62193    
     51500  -64309.342      395.83869     -63913.503      190.92105      190.73939      673.88987    
     51600  -64289.341      396.09577     -63893.246      190.89911      190.71505      674.15782    
     51700  -64261.169      393.14455     -63868.024      190.87823      190.69226      674.42577    
     51800  -64237.893      401.15489     -63836.738      190.85418      190.66918      674.69372    
     51900  -64216.281      402.59565     -63813.686      190.83217      190.64714      674.96167    
     52000  -64195.678      398.13748     -63797.541      190.80871      190.62517      675.22962    
     52100  -64181.686      402.29303     -63779.393      190.78409      190.60339      675.49756    
     52200  -64152.449      392.08689     -63760.362      190.76186      190.58172      675.76551    
     52300  -64132.782      391.73825     -63741.044      190.73946      190.55854      676.03346    
     52400  -64112.467      392.03553     -63720.432      190.71652      190.53584      676.30141    
     52500  -64093.156      389.51279     -63703.643      190.69506      190.51256      676.56936    
     52600  -64073.138      388.1031      -63685.035      190.67361      190.48929      676.8373     
     52700  -64049.913      392.08223     -63657.831      190.65032      190.46605      677.10525    
     52800  -64025.452      394.79467     -63630.657      190.62905      190.4445       677.3732     
     52900  -64001.918      394.82322     -63607.095      190.60607      190.42082      677.64115    
     53000  -63986.512      399.48314     -63587.029      190.58382      190.39923      677.9091     
     53100  -63964.246      394.21671     -63570.029      190.56185      190.37645      678.17705    
     53200  -63946.433      398.54747     -63547.886      190.53986      190.35341      678.44499    
     53300  -63918.694      395.02624     -63523.668      190.5178       190.3313       678.71294    
     53400  -63898.498      400.10976     -63498.388      190.4958       190.30917      678.98089    
     53500  -63872.678      395.99956     -63476.678      190.47351      190.2871       679.24884    
     53600  -63857.844      396.08451     -63461.76       190.45093      190.26501      679.51679    
     53700  -63832.935      392.49109     -63440.444      190.42944      190.2436       679.78474    
     53800  -63807.05       391.81587     -63415.234      190.40724      190.22064      680.05268    
     53900  -63784.39       397.26999     -63387.12       190.38644      190.19846      680.32063    
     54000  -63763.676      402.10084     -63361.575      190.36562      190.17552      680.58858    
     54100  -63743.397      396.59743     -63346.8        190.34396      190.15282      680.85653    
     54200  -63722.065      394.60449     -63327.46       190.32302      190.13157      681.12448    
     54300  -63697.005      391.08661     -63305.918      190.30057      190.10994      681.39243    
     54400  -63674.14       389.59476     -63284.545      190.27773      190.09004      681.66037    
     54500  -63655.187      392.10061     -63263.087      190.25614      190.06933      681.92832    
     54600  -63637.014      393.86373     -63243.15       190.23375      190.04802      682.19627    
     54700  -63612.164      390.96894     -63221.195      190.21298      190.02677      682.46422    
     54800  -63593.289      399.4309      -63193.858      190.19265      190.00441      682.73217    
     54900  -63558.561      395.71752     -63162.844      190.17142      189.98307      683.00011    
     55000  -63537.256      397.39096     -63139.865      190.15028      189.96149      683.26806    
     55100  -63520.126      398.21448     -63121.912      190.13042      189.94006      683.53601    
     55200  -63493.981      394.01802     -63099.963      190.108        189.91926      683.80396    
     55300  -63471.655      392.87377     -63078.781      190.08645      189.89906      684.07191    
     55400  -63452.568      393.74692     -63058.821      190.06606      189.87812      684.33986    
     55500  -63435.57       399.21422     -63036.355      190.04372      189.85663      684.6078     
     55600  -63408.981      394.8471      -63014.134      190.02355      189.83623      684.87575    
     55700  -63389.035      391.72662     -62997.308      190.00323      189.81408      685.1437     
     55800  -63363.809      390.38321     -62973.425      189.98174      189.79369      685.41165    
     55900  -63338.528      395.65922     -62942.869      189.96104      189.77302      685.6796     
     56000  -63312.421      397.93531     -62914.485      189.93995      189.75212      685.94755    
     56100  -63287.145      395.01274     -62892.132      189.91851      189.73229      686.21549    
     56200  -63268.876      398.33158     -62870.544      189.89768      189.71076      686.48344    
     56300  -63246.678      398.07163     -62848.606      189.87761      189.69119      686.75139    
     56400  -63226.01       397.74851     -62828.261      189.85533      189.67076      687.01934    
     56500  -63201.028      394.8589      -62806.169      189.83583      189.64994      687.28729    
     56600  -63180.182      396.57186     -62783.61       189.81508      189.62984      687.55523    
     56700  -63154.614      389.85778     -62764.757      189.79413      189.6085       687.82318    
     56800  -63134.809      390.62918     -62744.18       189.7758       189.58684      688.09113    
     56900  -63106.163      391.43123     -62714.731      189.75505      189.56646      688.35908    
     57000  -63079.804      396.36353     -62683.441      189.73429      189.54547      688.62703    
     57100  -63054.896      396.67327     -62658.222      189.71522      189.5248       688.89498    
     57200  -63035.704      399.59091     -62636.113      189.69279      189.50553      689.16292    
     57300  -63008.882      394.03532     -62614.846      189.6711       189.48623      689.43087    
     57400  -62985.567      394.31985     -62591.248      189.65061      189.46609      689.69882    
     57500  -62962.702      395.69325     -62567.009      189.62945      189.44616      689.96677    
     57600  -62938.76       395.65739     -62543.102      189.60963      189.4247       690.23472    
     57700  -62921.075      397.40359     -62523.672      189.59101      189.4025       690.50267    
     57800  -62894.331      392.76935     -62501.562      189.57131      189.38149      690.77061    
     57900  -62870.145      396.23766     -62473.907      189.55126      189.36041      691.03856    
     58000  -62844.074      398.07104     -62446.003      189.53125      189.3399       691.30651    
     58100  -62820.034      397.79082     -62422.244      189.51023      189.32044      691.57446    
     58200  -62790.932      389.97024     -62400.962      189.48948      189.29966      691.84241    
     58300  -62771.83       394.22209     -62377.608      189.46973      189.27983      692.11036    
     58400  -62749.847      397.41563     -62352.432      189.44907      189.25962      692.3783     
     58500  -62721.539      390.7814      -62330.758      189.42926      189.23784      692.64625    
     58600  -62700.63       390.52908     -62310.101      189.4102       189.21848      692.9142     
     58700  -62675.896      395.37014     -62280.526      189.38862      189.19877      693.18215    
     58800  -62647.092      399.96274     -62247.129      189.36884      189.17825      693.4501     
     58900  -62615.617      395.87811     -62219.739      189.3488       189.15897      693.71804    
     59000  -62595.59       397.48942     -62198.101      189.3285       189.13843      693.98599    
     59100  -62569.588      395.51854     -62174.07       189.30992      189.11753      694.25394    
     59200  -62543.874      394.77806     -62149.096      189.29024      189.0973       694.52189    
     59300  -62520.234      395.36679     -62124.868      189.27016      189.07762      694.78984    
     59400  -62496.071      394.20692     -62101.865      189.25095      189.05686      695.05779    
     59500  -62472.724      393.98789     -62078.736      189.23023      189.03786      695.32573    
     59600  -62447.62       389.14036     -62058.48       189.20988      189.01887      695.59368    
     59700  -62421.016      387.77608     -62033.24       189.19003      188.99852      695.86163    
     59800  -62395.082      398.73284     -61996.349      189.17031      188.97989      696.12958    
     59900  -62367.069      401.91179     -61965.157      189.14997      188.96018      696.39753    
     60000  -62340.411      399.73652     -61940.674      189.13037      188.93999      696.66548    
     60100  -62314.753      396.48609     -61918.267      189.11077      188.92096      696.93342    
     60200  -62288.302      394.09149     -61894.21       189.09108      188.90047      697.20137    
     60300  -62259.906      392.06572     -61867.841      189.0723       188.88024      697.46932    
     60400  -62232.231      391.8247      -61840.406      189.05275      188.86035      697.73727    
     60500  -62210.207      394.61277     -61815.594      189.03394      188.83946      698.00522    
     60600  -62185.067      392.45827     -61792.609      189.01442      188.81928      698.27317    
     60700  -62154.188      389.00859     -61765.179      188.99351      188.80169      698.54111    
     60800  -62127.353      394.14942     -61733.204      188.97318      188.78251      698.80906    
     60900  -62098.385      400.96348     -61697.422      188.95237      188.76409      699.07701    
     61000  -62067.647      399.71805     -61667.929      188.93191      188.74592      699.34496    
     61100  -62047.877      399.30972     -61648.568      188.91387      188.72439      699.61291    
     61200  -62023.355      398.51024     -61624.845      188.89447      188.70414      699.88085    
     61300  -61992.719      392.02575     -61600.693      188.87609      188.68423      700.1488     
     61400  -61966.395      393.13941     -61573.256      188.85856      188.6626       700.41675    
     61500  -61937.169      394.87019     -61542.298      188.83772      188.6438       700.6847     
     61600  -61906.977      396.29122     -61510.685      188.81768      188.62516      700.95265    
     61700  -61877.098      394.20563     -61482.893      188.79841      188.60528      701.2206     
     61800  -61855.111      396.30139     -61458.809      188.77741      188.58729      701.48854    
     61900  -61827.256      394.60186     -61432.654      188.75815      188.56643      701.75649    
     62000  -61799.734      396.59479     -61403.14       188.73976      188.5463       702.02444    
     62100  -61774.678      399.49004     -61375.188      188.71878      188.52747      702.29239    
     62200  -61738.626      385.59685     -61353.029      188.69982      188.50708      702.56034    
     62300  -61723.897      399.34155     -61324.555      188.68031      188.48746      702.82829    
     62400  -61686.851      395.64757     -61291.203      188.65956      188.46819      703.09623    
     62500  -61657.005      401.79624     -61255.209      188.64163      188.44701      703.36418    
     62600  -61624.307      403.00478     -61221.303      188.62226      188.42711      703.63213    
     62700  -61594.432      397.00241     -61197.43       188.60182      188.40776      703.90008    
     62800  -61570.587      396.64906     -61173.938      188.58407      188.38686      704.16803    
     62900  -61541.085      393.52955     -61147.555      188.56315      188.36742      704.43598    
     63000  -61513.654      394.25378     -61119.4        188.54373      188.34824      704.70392    
     63100  -61484.504      393.92271     -61090.582      188.52519      188.32677      704.97187    
     63200  -61457.355      393.03315     -61064.322      188.50461      188.30823      705.23982    
     63300  -61427.593      389.70461     -61037.888      188.48562      188.28834      705.50777    
     63400  -61399.791      393.41946     -61006.371      188.46639      188.26723      705.77572    
     63500  -61372.507      405.12199     -60967.385      188.44545      188.25012      706.04366    
     63600  -61331.556      399.27165     -60932.285      188.42566      188.23002      706.31161    
     63700  -61307.274      401.7765      -60905.498      188.40619      188.21042      706.57956    
     63800  -61279.621      400.75633     -60878.865      188.38569      188.19222      706.84751    
     63900  -61247.361      397.53169     -60849.829      188.36806      188.16992      707.11546    
     64000  -61210.776      389.69281     -60821.083      188.34931      188.14996      707.38341    
     64100  -61187.723      395.89951     -60791.824      188.32941      188.13109      707.65135    
     64200  -61153.698      392.39987     -60761.298      188.31132      188.10945      707.9193     
     64300  -61132.47       402.28313     -60730.186      188.29046      188.0921       708.18725    
     64400  -61090.804      392.58807     -60698.216      188.2698       188.07323      708.4552     
     64500  -61064.861      397.06705     -60667.793      188.25172      188.05253      708.72315    
     64600  -61033.944      394.25384     -60639.69       188.23043      188.03411      708.9911     
     64700  -61004.476      394.52424     -60609.951      188.21202      188.01381      709.25904    
     64800  -60970.013      393.74393     -60576.269      188.19365      187.99299      709.52699    
     64900  -60938.024      395.20848     -60542.815      188.17244      187.9748       709.79494    
     65000  -60908.272      394.73102     -60513.541      188.15381      187.95425      710.06289    
     65100  -60878.837      394.48022     -60484.357      188.13384      187.93525      710.33084    
     65200  -60847.446      395.27678     -60452.169      188.11295      187.91708      710.59879    
     65300  -60816.468      397.47106     -60418.996      188.09489      187.89544      710.86673    
     65400  -60781.702      392.1899      -60389.512      188.07566      187.87667      711.13468    
     65500  -60751.944      394.49098     -60357.453      188.05483      187.85719      711.40263    
     65600  -60720.825      397.58352     -60323.242      188.03678      187.83632      711.67058    
     65700  -60686.154      395.91285     -60290.241      188.0162       187.81804      711.93853    
     65800  -60655.939      398.03025     -60257.909      187.99685      187.79865      712.20647    
     65900  -60621.594      396.99346     -60224.6        187.97886      187.77732      712.47442    
     66000  -60590.728      397.09049     -60193.637      187.9578       187.7589       712.74237    
     66100  -60559.442      395.41852     -60164.024      187.93915      187.73859      713.01032    
     66200  -60530.718      399.10262     -60131.616      187.91961      187.71854      713.27827    
     66300  -60495.756      397.69248     -60098.063      187.89724      187.70151      713.54622    
     66400  -60464.749      397.00924     -60067.74       187.87807      187.68084      713.81416    
     66500  -60433.141      395.69078     -60037.45       187.8585       187.6612       714.08211    
     66600  -60394.763      394.17818     -60000.585      187.83831      187.64178      714.35006    
     66700  -60360.727      398.18133     -59962.546      187.82153      187.61894      714.61801    
     66800  -60325.407      398.97399     -59926.434      187.8021       187.59885      714.88596    
     66900  -60294.599      397.40501     -59897.194      187.78186      187.57898      715.15391    
     67000  -60262.021      399.52223     -59862.499      187.76313      187.55831      715.42185    
     67100  -60228.473      399.05483     -59829.418      187.74118      187.54109      715.6898     
     67200  -60193.943      397.37673     -59796.566      187.72066      187.52134      715.95775    
     67300  -60158.114      395.95259     -59762.161      187.70199      187.50092      716.2257     
     67400  -60124.232      397.35108     -59726.881      187.68104      187.48186      716.49365    
     67500  -60086.75       393.85179     -59692.898      187.66254      187.46085      716.7616     
     67600  -60055.087      398.30498     -59656.782      187.643        187.44003      717.02954    
     67700  -60022.96       402.0886      -59620.872      187.62278      187.42155      717.29749    
     67800  -59990.18       402.63439     -59587.545      187.60403      187.40022      717.56544    
     67900  -59949.786      396.23732     -59553.549      187.58364      187.38053      717.83339    
     68000  -59913.096      393.71008     -59519.385      187.56377      187.36184      718.10134    
     68100  -59886.6        401.62369     -59484.977      187.54517      187.34014      718.36928    
     68200  -59846.104      395.44378     -59450.66       187.52437      187.32166      718.63723    
     68300  -59810.246      395.20323     -59415.043      187.50394      187.30197      718.90518    
     68400  -59780.304      400.36817     -59379.936      187.4849       187.28193      719.17313    
     68500  -59740.384      396.44268     -59343.942      187.46373      187.26339      719.44108    
     68600  -59705.058      397.17834     -59307.88       187.4448       187.24274      719.70903    
     68700  -59671.451      399.7777      -59271.673      187.42561      187.22197      719.97697    
     68800  -59635.927      399.41658     -59236.51       187.40574      187.20226      720.24492    
     68900  -59597.573      397.55896     -59200.014      187.38654      187.18194      720.51287    
     69000  -59557.565      392.70583     -59164.859      187.3659       187.16298      720.78082    
     69100  -59530.952      402.11979     -59128.832      187.34483      187.14414      721.04877    
     69200  -59486.538      394.65299     -59091.885      187.32524      187.12404      721.31672    
     69300  -59457.139      401.68913     -59055.449      187.30572      187.10403      721.58466    
     69400  -59417.944      399.95311     -59017.991      187.28651      187.08369      721.85261    
     69500  -59383.33       404.08168     -58979.248      187.26725      187.06289      722.12056    
     69600  -59342.174      400.77032     -58941.404      187.24725      187.04284      722.38851    
     69700  -59307.363      401.34774     -58906.015      187.227        187.02381      722.65646    
     69800  -59269.541      400.96221     -58868.579      187.20693      187.00482      722.92441    
     69900  -59235.729      403.69748     -58832.032      187.18618      186.98502      723.19235    
     70000  -59196.978      402.2045      -58794.774      187.16604      186.96573      723.4603     
     70100  -59156.918      398.75597     -58758.162      187.14716      186.94505      723.72825    
     70200  -59116.772      396.83058     -58719.942      187.12695      186.9249       723.9962     
     70300  -59081.723      400.57311     -58681.15       187.10723      186.90512      724.26415    
     70400  -59045.312      403.677       -58641.635      187.08797      186.88382      724.53209    
     70500  -59004.324      400.09833     -58604.225      187.06705      186.8647       724.80004    
     70600  -58970.47       403.70249     -58566.767      187.04748      186.84466      725.06799    
     70700  -58927.782      398.66639     -58529.115      187.02791      186.82381      725.33594    
     70800  -58893.111      402.38348     -58490.727      187.00676      186.80443      725.60389    
     70900  -58848.692      397.52373     -58451.168      186.9872       186.78389      725.87184    
     71000  -58816.965      401.48143     -58415.484      186.96725      186.76392      726.13978    
     71100  -58779.124      403.45577     -58375.668      186.94643      186.74472      726.40773    
     71200  -58741.031      405.41293     -58335.618      186.92715      186.72283      726.67568    
     71300  -58698.145      405.86455     -58292.28       186.90671      186.70336      726.94363    
     71400  -58654.61       403.52589     -58251.084      186.88689      186.68343      727.21158    
     71500  -58619.789      407.32797     -58212.461      186.86766      186.66119      727.47953    
     71600  -58582.813      410.85551     -58171.957      186.84653      186.64249      727.74747    
     71700  -58540.49       407.70459     -58132.785      186.82639      186.62266      728.01542    
     71800  -58502.801      410.57823     -58092.223      186.80644      186.60158      728.28337    
     71900  -58457.617      405.82177     -58051.795      186.78544      186.58255      728.55132    
     72000  -58415.117      402.48244     -58012.635      186.76631      186.56144      728.81927    
     72100  -58382.174      410.92306     -57971.251      186.74647      186.54014      729.08722    
     72200  -58333.685      403.53303     -57930.152      186.72605      186.52067      729.35516    
     72300  -58297.322      408.8666      -57888.455      186.70633      186.49994      729.62311    
     72400  -58256.443      407.38854     -57849.055      186.68555      186.48046      729.89106    
     72500  -58218.411      409.36157     -57809.05       186.66381      186.46093      730.15901    
     72600  -58176.971      408.81901     -57768.152      186.64466      186.44067      730.42696    
     72700  -58131.685      403.53593     -57728.149      186.62382      186.41985      730.6949     
     72800  -58095.404      409.68058     -57685.723      186.60387      186.39993      730.96285    
[...]
     81600  -71776.118      401.0763      -71375.042      186.39618      185.99772      754.5423     
     81700  -71827.971      395.8953      -71432.075      186.42782      186.03586      754.81025    
     81800  -71862.718      383.82837     -71478.89       186.46061      186.07506      755.0782     
     81900  -71892.651      389.69289     -71502.958      186.49579      186.11933      755.34614    
     82000  -71920.057      402.4195      -71517.637      186.53397      186.16712      755.61409    
     82100  -71944.334      400.96226     -71543.372      186.57726      186.21785      755.88204    
     82200  -71949.673      376.54656     -71573.127      186.62206      186.27064      756.14999    
     82300  -71938.951      367.72784     -71571.223      186.66679      186.32603      756.41794    
     82400  -71911.115      387.662       -71523.453      186.71204      186.37798      756.68589    
     82500  -71890.591      420.30302     -71470.288      186.75544      186.4278       756.95383    
     82600  -71857.691      401.44943     -71456.242      186.79652      186.48419      757.22178    
     82700  -71846.172      385.85157     -71460.32       186.83363      186.53854      757.48973    
     82800  -71833.326      386.07441     -71447.251      186.86852      186.59125      757.75768    
     82900  -71822.64       405.77269     -71416.867      186.90112      186.64477      758.02563    
     83000  -71826.593      417.09776     -71409.495      186.93719      186.695        758.29358    
     83100  -71834.867      398.39631     -71436.471      186.97225      186.7427       758.56152    
     83200  -71863.135      394.30364     -71468.832      187.00455      186.78894      758.82947    
     83300  -71895.609      397.02111     -71498.588      187.03757      186.82788      759.09742    
     83400  -71932.019      402.26812     -71529.751      187.06948      186.86234      759.36537    
     83500  -71962.49       391.93068     -71570.56       187.09839      186.89322      759.63332    
     83600  -71979.397      378.80666     -71600.59       187.12721      186.92201      759.90127    
     83700  -71972.929      375.3226      -71597.606      187.14903      186.9515       760.16921    
     83800  -71962.543      400.88731     -71561.656      187.1691       186.98287      760.43716    
     83900  -71933.489      398.42844     -71535.061      187.19015      187.01461      760.70511    
     84000  -71912.968      392.14341     -71520.824      187.2114       187.05024      760.97306    
     84100  -71894.324      392.07612     -71502.248      187.23518      187.08912      761.24101    
     84200  -71850.784      377.32324     -71473.461      187.26301      187.12916      761.50895    
     84300  -71821.127      397.57766     -71423.549      187.29539      187.17074      761.7769     
     84400  -71800.794      420.55354     -71380.24       187.33025      187.21316      762.04485    
     84500  -71815.707      429.99039     -71385.716      187.37613      187.2519       762.3128     
     84600  -71856.79       410.08519     -71446.705      187.42364      187.29049      762.58075    
     84700  -71901.693      389.58802     -71512.105      187.46785      187.33131      762.8487     
     84800  -71935.5        384.1994      -71551.301      187.50976      187.37092      763.11664    
     84900  -71956.529      391.398       -71565.131      187.54821      187.41091      763.38459    
     85000  -71977.18       403.01986     -71574.16       187.58143      187.45202      763.65254    
     85100  -71978.965      387.35072     -71591.615      187.61403      187.49101      763.92049    
     85200  -71976.345      384.07114     -71592.274      187.64976      187.52594      764.18844    
     85300  -71971.124      396.87862     -71574.246      187.68222      187.56113      764.45639    
     85400  -71963.691      405.68118     -71558.01       187.71637      187.59544      764.72433    
     85500  -71957.516      397.0068      -71560.509      187.7551       187.62869      764.99228    
     85600  -71946.727      381.632       -71565.095      187.79266      187.66463      765.26023    
     85700  -71937.297      390.24122     -71547.056      187.82879      187.70692      765.52818    
     85800  -71927.995      407.09        -71520.905      187.86648      187.75509      765.79613    
     85900  -71920.474      404.25498     -71516.219      187.90273      187.80945      766.06408    
     86000  -71917.698      389.52421     -71528.174      187.94021      187.86757      766.33202    
     86100  -71919.436      385.53747     -71533.899      187.98022      187.92773      766.59997    
     86200  -71919.929      394.50882     -71525.42       188.01487      187.99029      766.86792    
     86300  -71916.452      400.64848     -71515.804      188.0467       188.05572      767.13587    
     86400  -71908.656      392.71154     -71515.944      188.08297      188.11667      767.40382    
     86500  -71894.708      382.20543     -71512.502      188.11743      188.17384      767.67176    
     86600  -71882.644      392.10789     -71490.536      188.14764      188.24022      767.93971    
     86700  -71853.583      394.56346     -71459.019      188.17994      188.30624      768.20766    
     86800  -71829.079      400.05544     -71429.023      188.21471      188.37023      768.47561    
     86900  -71815.528      403.52669     -71412.002      188.24735      188.44297      768.74356    
     87000  -71810.085      401.08895     -71408.996      188.27184      188.52864      769.01151    
     87100  -71814.273      397.77        -71416.503      188.29905      188.61593      769.27945    
     87200  -71833.6        399.13891     -71434.461      188.32781      188.70083      769.5474     
     87300  -71851.992      392.28833     -71459.704      188.35639      188.78877      769.81535    
     87400  -71860.083      383.38337     -71476.7        188.38156      188.87768      770.0833     
     87500  -71859.928      385.17533     -71474.753      188.41152      188.9525       770.35125    
     87600  -71847.36       392.44841     -71454.912      188.44455      189.02011      770.6192     
     87700  -71835.999      403.04982     -71432.949      188.47602      189.08392      770.88714    
     87800  -71819.537      397.45158     -71422.085      188.5069       189.13425      771.15509    
     87900  -71822.455      400.13449     -71422.32       188.54301      189.17209      771.42304    
     88000  -71828.923      398.34911     -71430.574      188.57962      189.20041      771.69099    
     88100  -71835.655      395.6305      -71440.024      188.6106       189.21707      771.95894    
     88200  -71835.413      390.89486     -71444.518      188.64066      189.22693      772.22689    
     88300  -71843.822      401.19395     -71442.628      188.67119      189.22645      772.49483    
     88400  -71847.587      397.16802     -71450.419      188.70352      189.21281      772.76278    
     88500  -71862.457      396.35308     -71466.104      188.73222      189.20169      773.03073    
     88600  -71881.661      396.0217      -71485.639      188.7561       189.19114      773.29868    
     88700  -71899.295      394.87701     -71504.418      188.78366      189.17875      773.56663    
     88800  -71907.005      389.30433     -71517.701      188.81311      189.16828      773.83457    
     88900  -71918.704      396.55086     -71522.153      188.84038      189.16369      774.10252    
     89000  -71915.408      391.47123     -71523.937      188.86655      189.16974      774.37047    
     89100  -71921.629      398.2284      -71523.4        188.89224      189.18354      774.63842    
     89200  -71926.285      397.39026     -71528.895      188.91703      189.20065      774.90637    
     89300  -71921.283      387.60241     -71533.68       188.94184      189.22637      775.17432    
     89400  -71916.111      393.99014     -71522.121      188.96553      189.25558      775.44226    
     89500  -71906.822      404.90832     -71501.913      188.98994      189.28606      775.71021    
     89600  -71908.803      409.65828     -71499.145      189.01413      189.3243       775.97816    
     89700  -71906.607      387.36999     -71519.237      189.03705      189.36538      776.24611    
     89800  -71918.487      385.30495     -71533.182      189.06453      189.40292      776.51406    
     89900  -71918.026      388.56265     -71529.463      189.09392      189.44129      776.78201    
     90000  -71903.641      393.89084     -71509.751      189.11899      189.48358      777.04995    
     90100  -71887.201      402.1365      -71485.064      189.14284      189.52197      777.3179     
     90200  -71876.641      402.84658     -71473.795      189.171        189.55726      777.58585    
     90300  -71878.4        397.98836     -71480.412      189.19656      189.59206      777.8538     
     90400  -71879.235      389.42091     -71489.814      189.22427      189.6232       778.12175    
     90500  -71889.42       397.83718     -71491.583      189.25216      189.6495       778.3897     
     90600  -71897.444      402.82942     -71494.614      189.27692      189.67689      778.65764    
     90700  -71909.433      401.19175     -71508.241      189.30447      189.70324      778.92559    
     90800  -71919.772      385.99219     -71533.78       189.33315      189.72431      779.19354    
     90900  -71917.103      374.74681     -71542.356      189.36211      189.74812      779.46149    
     91000  -71912.013      393.33138     -71518.681      189.38938      189.77169      779.72944    
     91100  -71900.662      410.07966     -71490.582      189.41978      189.78979      779.99738    
     91200  -71904.833      409.96402     -71494.869      189.44811      189.81102      780.26533    
     91300  -71915.931      387.76468     -71528.167      189.46669      189.83763      780.53328    
     91400  -71918.542      372.73395     -71545.808      189.48342      189.86587      780.80123    
     91500  -71905.006      382.47051     -71522.536      189.50071      189.89035      781.06918    
     91600  -71895.65       412.62284     -71483.027      189.51629      189.91105      781.33713    
     91700  -71898.843      418.85558     -71479.988      189.53476      189.93187      781.60507    
     91800  -71912.618      395.59717     -71517.021      189.55487      189.94914      781.87302    
     91900  -71926.883      378.35883     -71548.524      189.5749       189.9641       782.14097    
     92000  -71933.386      382.89403     -71550.492      189.59733      189.97863      782.40892    
     92100  -71940.783      405.31404     -71535.469      189.62363      189.98937      782.67687    
     92200  -71943.13       405.6698      -71537.46       189.65242      190.00346      782.94482    
     92300  -71946.395      388.23837     -71558.156      189.67939      190.02421      783.21276    
     92400  -71949.716      384.37657     -71565.34       189.70915      190.04713      783.48071    
     92500  -71946.733      394.94427     -71551.788      189.74532      190.0704       783.74866    
     92600  -71940.713      401.56716     -71539.146      189.78205      190.09793      784.01661    
     92700  -71930.897      393.18643     -71537.71       189.81698      190.12944      784.28456    
     92800  -71927.65       391.60312     -71536.047      189.85401      190.16432      784.55251    
     92900  -71913.417      389.5484      -71523.869      189.89325      190.1994       784.82045    
     93000  -71902.567      397.20186     -71505.365      189.93149      190.23477      785.0884     
     93100  -71893.853      398.85173     -71495.002      189.96502      190.27247      785.35635    
     93200  -71888.203      393.02656     -71495.176      189.99815      190.31105      785.6243     
     93300  -71889.485      393.75603     -71495.729      190.03002      190.34962      785.89225    
     93400  -71881.593      390.35175     -71491.241      190.05852      190.39098      786.16019    
     93500  -71881.88       399.43033     -71482.45       190.08529      190.43313      786.42814    
     93600  -71871.767      394.11579     -71477.652      190.11363      190.47354      786.69609    
     93700  -71866.903      393.80808     -71473.095      190.14509      190.51236      786.96404    
     93800  -71850.923      391.67984     -71459.243      190.17559      190.55056      787.23199    
     93900  -71847.734      406.90824     -71440.826      190.20422      190.59171      787.49994    
     94000  -71857.725      413.34272     -71444.383      190.23675      190.62829      787.76788    
     94100  -71876.322      397.59766     -71478.724      190.26869      190.66338      788.03583    
     94200  -71897.315      383.82541     -71513.49       190.30129      190.7018       788.30378    
     94300  -71911.363      385.52879     -71525.834      190.33614      190.74168      788.57173    
     94400  -71912.374      394.89961     -71517.474      190.3714       190.78281      788.83968    
     94500  -71912.301      404.59395     -71507.707      190.40633      190.82919      789.10763    
     94600  -71914.505      400.13026     -71514.375      190.44019      190.87713      789.37557    
     94700  -71917.692      391.26633     -71526.426      190.47183      190.92399      789.64352    
     94800  -71918.108      391.46687     -71526.641      190.50126      190.97374      789.91147    
     94900  -71926.083      402.96679     -71523.116      190.52874      191.02341      790.17942    
     95000  -71928.946      397.73228     -71531.214      190.55555      191.07432      790.44737    
     95100  -71926.446      384.09702     -71542.349      190.58169      191.13085      790.71532    
     95200  -71918.031      383.2431      -71534.788      190.61128      191.18742      790.98326    
     95300  -71908.958      401.50138     -71507.457      190.64604      191.24277      791.25121    
     95400  -71903.647      415.59965     -71488.047      190.68172      191.29984      791.51916    
     95500  -71897.484      399.71489     -71497.769      190.71718      191.35659      791.78711    
     95600  -71903.755      384.77026     -71518.984      190.75524      191.41013      792.05506    
     95700  -71896.781      377.41932     -71519.362      190.79037      191.45683      792.323      
     95800  -71883.363      392.64084     -71490.722      190.82167      191.50098      792.59095    
     95900  -71868.701      409.60622     -71459.095      190.85225      191.53667      792.8589     
     96000  -71857.873      405.88164     -71451.991      190.88312      191.56414      793.12685    
     96100  -71858.411      392.18957     -71466.221      190.91044      191.58799      793.3948     
     96200  -71864.135      385.99301     -71478.142      190.93461      191.61145      793.66275    
     96300  -71861.934      390.86174     -71471.072      190.95837      191.62924      793.93069    
     96400  -71859.986      405.79306     -71454.193      190.97761      191.64856      794.19864    
     96500  -71867.256      410.25041     -71457.006      190.99194      191.6696       794.46659    
     96600  -71872.809      389.15674     -71483.652      191.00387      191.68608      794.73454    
     96700  -71885.727      383.1286      -71502.599      191.01398      191.70229      795.00249    
     96800  -71890.561      390.09173     -71500.469      191.01755      191.72074      795.27044    
     96900  -71893.632      404.63213     -71489          191.01824      191.74005      795.53838    
     97000  -71893.026      401.2253      -71491.8        191.02001      191.76055      795.80633    
     97100  -71907.039      394.51516     -71512.524      191.01749      191.78714      796.07428    
     97200  -71925.796      392.6266      -71533.169      191.01522      191.81374      796.34223    
     97300  -71937.026      391.21765     -71545.808      191.01647      191.84039      796.61018    
     97400  -71938.664      390.79331     -71547.871      191.01814      191.87022      796.87813    
     97500  -71936.678      396.53497     -71540.143      191.02001      191.90337      797.14607    
     97600  -71932.695      399.24376     -71533.451      191.02665      191.93657      797.41402    
     97700  -71928.679      393.72288     -71534.956      191.03758      191.96686      797.68197    
     97800  -71925.147      386.27007     -71538.877      191.0514       191.99837      797.94992    
     97900  -71918.572      387.08484     -71531.487      191.0671       192.02838      798.21787    
     98000  -71907.839      396.51319     -71511.325      191.08686      192.05385      798.48581    
     98100  -71890.011      399.71732     -71490.294      191.10959      192.07521      798.75376    
     98200  -71877.642      400.0892      -71477.552      191.13208      192.09492      799.02171    
     98300  -71874.653      399.04151     -71475.612      191.15868      192.10826      799.28966    
     98400  -71883.422      401.30108     -71482.121      191.18773      192.11441      799.55761    
     98500  -71888.968      393.59891     -71495.369      191.21527      192.12124      799.82556    
     98600  -71889.52       387.273       -71502.247      191.24037      192.12989      800.0935     
     98700  -71885.339      391.59621     -71493.742      191.26499      192.13559      800.36145    
     98800  -71879.787      401.53828     -71478.248      191.29106      192.14225      800.6294     
     98900  -71883.64       408.24457     -71475.395      191.3116       192.15751      800.89735    
     99000  -71901.437      401.22717     -71500.21       191.3317       192.17605      801.1653     
     99100  -71924.94       391.5173      -71533.423      191.35465      192.19548      801.43325    
     99200  -71941.107      386.71576     -71554.391      191.37538      192.22165      801.70119    
     99300  -71942.665      383.97761     -71558.687      191.39324      192.2553       801.96914    
     99400  -71944.444      396.36699     -71548.077      191.4171       192.28736      802.23709    
     99500  -71936.598      397.79659     -71538.802      191.44562      192.31895      802.50504    
     99600  -71927.452      390.48753     -71536.964      191.47082      192.3588       802.77299    
     99700  -71927.109      393.94704     -71533.162      191.4954       192.40409      803.04094    
     99800  -71923.611      399.10445     -71524.507      191.52602      192.44673      803.30888    
     99900  -71924          404.02907     -71519.971      191.56013      192.48835      803.57683    
    100000  -71931.528      401.27523     -71530.253      191.59529      192.53079      803.84478    
Loop time of 30903.2 on 16 procs for 100000 steps with 10192 atoms

Performance: 0.280 ns/day, 85.842 hours/ns, 3.236 timesteps/s, 32.980 katom-step/s
46.1% CPU use with 16 MPI tasks x 1 OpenMP threads

MPI task timing breakdown:
Section |  min time  |  avg time  |  max time  |%varavg| %total
---------------------------------------------------------------
Pair    | 1198.8     | 1688.5     | 2238.8     | 839.0 |  5.46
Neigh   | 6.789      | 15.584     | 24.095     | 158.6 |  0.05
Comm    | 4321.7     | 4765.3     | 5224.3     | 404.3 | 15.42
Output  | 98.193     | 101.49     | 105.42     |  20.2 |  0.33
Modify  | 21147      | 21494      | 21940      | 154.8 | 69.55
Other   |            | 2839       |            |       |  9.19

Nlocal:            637 ave        1818 max           0 min
Histogram: 4 3 0 2 3 1 1 1 0 1
Nghost:        1890.69 ave        3379 max         239 min
Histogram: 1 5 2 0 0 0 0 1 1 6
Neighs:              0 ave           0 max           0 min
Histogram: 16 0 0 0 0 0 0 0 0 0

Total # of neighbors = 0
Ave neighs/atom = 0
Neighbor list builds = 976
Dangerous builds = 0
Total wall time: 8:35:05
