LAMMPS data file via write_data, version 2 Aug 2023, timestep = 0, units = metal

3920 atoms
2 atom types

-100 100 xlo xhi
-100 100 ylo yhi
-2.3312511101 203.7827949909 zlo zhi

Masses

1 12.0107
2 12.0107

Atoms # atomic

6 1 -1.384062 -5.165391 0 0 0 0
7 1 -3.781329 -3.781329 0 0 0 0
8 1 -4.631163 -2.673803 0 0 0 0
21 1 -2.04644 -4.940544 1.212436 0 0 0
22 1 -3.255416 -4.242541 1.212436 0 0 0
23 1 -4.940544 -2.04644 1.212436 0 0 0
24 1 -5.301857 -0.698003 1.212436 0 0 0
36 1 -1.384062 -5.165391 2.424871 0 0 0
37 1 -3.781329 -3.781329 2.424871 0 0 0
38 1 -4.631163 -2.673803 2.424871 0 0 0
51 1 -2.04644 -4.940544 3.637307 0 0 0
52 1 -3.255416 -4.242541 3.637307 0 0 0
53 1 -4.940544 -2.04644 3.637307 0 0 0
54 1 -5.301857 -0.698003 3.637307 0 0 0
66 1 -1.384062 -5.165391 4.849742 0 0 0
67 1 -3.781329 -3.781329 4.849742 0 0 0
68 1 -4.631163 -2.673803 4.849742 0 0 0
81 1 -2.04644 -4.940544 6.062178 0 0 0
82 1 -3.255416 -4.242541 6.062178 0 0 0
83 1 -4.940544 -2.04644 6.062178 0 0 0
84 1 -5.301857 -0.698003 6.062178 0 0 0
97 1 -3.781329 -3.781329 7.274613 0 0 0
98 1 -4.631163 -2.673803 7.274613 0 0 0
112 1 -1.384062 -5.165391 7.274613 0 0 0
113 1 -4.940544 -2.04644 8.487049 0 0 0
114 1 -5.301857 -0.698003 8.487049 0 0 0
127 1 -2.04644 -4.940544 8.487049 0 0 0
128 1 -3.255416 -4.242541 8.487049 0 0 0
142 1 -1.384062 -5.165391 9.699485 0 0 0
143 1 -3.781329 -3.781329 9.699485 0 0 0
144 1 -4.631163 -2.673803 9.699485 0 0 0
157 1 -2.04644 -4.940544 10.91192 0 0 0
158 1 -3.255416 -4.242541 10.91192 0 0 0
159 1 -4.940544 -2.04644 10.91192 0 0 0
160 1 -5.301857 -0.698003 10.91192 0 0 0
172 1 -1.384062 -5.165391 12.124356 0 0 0
173 1 -3.781329 -3.781329 12.124356 0 0 0
174 1 -4.631163 -2.673803 12.124356 0 0 0
187 1 -2.04644 -4.940544 13.336791 0 0 0
188 1 -3.255416 -4.242541 13.336791 0 0 0
189 1 -4.940544 -2.04644 13.336791 0 0 0
190 1 -5.301857 -0.698003 13.336791 0 0 0
202 1 -1.384062 -5.165391 14.549227 0 0 0
203 1 -3.781329 -3.781329 14.549227 0 0 0
204 1 -4.631163 -2.673803 14.549227 0 0 0
217 1 -2.04644 -4.940544 15.761662 0 0 0
218 1 -3.255416 -4.242541 15.761662 0 0 0
219 1 -4.940544 -2.04644 15.761662 0 0 0
220 1 -5.301857 -0.698003 15.761662 0 0 0
232 1 -1.384062 -5.165391 16.974098 0 0 0
233 1 -3.781329 -3.781329 16.974098 0 0 0
234 1 -4.631163 -2.673803 16.974098 0 0 0
247 1 -2.04644 -4.940544 18.186533 0 0 0
248 1 -3.255416 -4.242541 18.186533 0 0 0
249 1 -4.940544 -2.04644 18.186533 0 0 0
250 1 -5.301857 -0.698003 18.186533 0 0 0
262 1 -1.384062 -5.165391 19.398969 0 0 0
263 1 -3.781329 -3.781329 19.398969 0 0 0
264 1 -4.631163 -2.673803 19.398969 0 0 0
277 1 -2.04644 -4.940544 20.611405 0 0 0
278 1 -3.255416 -4.242541 20.611405 0 0 0
279 1 -4.940544 -2.04644 20.611405 0 0 0
280 1 -5.301857 -0.698003 20.611405 0 0 0
292 1 -1.384062 -5.165391 21.82384 0 0 0
293 1 -3.781329 -3.781329 21.82384 0 0 0
294 1 -4.631163 -2.673803 21.82384 0 0 0
307 1 -2.04644 -4.940544 23.036276 0 0 0
308 1 -3.255416 -4.242541 23.036276 0 0 0
309 1 -4.940544 -2.04644 23.036276 0 0 0
310 1 -5.301857 -0.698003 23.036276 0 0 0
322 1 -1.384062 -5.165391 24.248711 0 0 0
323 1 -3.781329 -3.781329 24.248711 0 0 0
324 1 -4.631163 -2.673803 24.248711 0 0 0
337 1 -2.04644 -4.940544 25.461147 0 0 0
338 1 -3.255416 -4.242541 25.461147 0 0 0
339 1 -4.940544 -2.04644 25.461147 0 0 0
340 1 -5.301857 -0.698003 25.461147 0 0 0
353 1 -3.781329 -3.781329 26.673582 0 0 0
354 1 -4.631163 -2.673803 26.673582 0 0 0
368 1 -1.384062 -5.165391 26.673582 0 0 0
369 1 -4.940544 -2.04644 27.886018 0 0 0
370 1 -5.301857 -0.698003 27.886018 0 0 0
383 1 -2.04644 -4.940544 27.886018 0 0 0
384 1 -3.255416 -4.242541 27.886018 0 0 0
398 1 -1.384062 -5.165391 29.098454 0 0 0
399 1 -3.781329 -3.781329 29.098454 0 0 0
400 1 -4.631163 -2.673803 29.098454 0 0 0
413 1 -2.04644 -4.940544 30.310889 0 0 0
414 1 -3.255416 -4.242541 30.310889 0 0 0
415 1 -4.940544 -2.04644 30.310889 0 0 0
416 1 -5.301857 -0.698003 30.310889 0 0 0
428 1 -1.384062 -5.165391 31.523325 0 0 0
429 1 -3.781329 -3.781329 31.523325 0 0 0
430 1 -4.631163 -2.673803 31.523325 0 0 0
443 1 -2.04644 -4.940544 32.73576 0 0 0
444 1 -3.255416 -4.242541 32.73576 0 0 0
445 1 -4.940544 -2.04644 32.73576 0 0 0
446 1 -5.301857 -0.698003 32.73576 0 0 0
458 1 -1.384062 -5.165391 33.948196 0 0 0
459 1 -3.781329 -3.781329 33.948196 0 0 0
460 1 -4.631163 -2.673803 33.948196 0 0 0
473 1 -2.04644 -4.940544 35.160631 0 0 0
474 1 -3.255416 -4.242541 35.160631 0 0 0
475 1 -4.940544 -2.04644 35.160631 0 0 0
476 1 -5.301857 -0.698003 35.160631 0 0 0
488 1 -1.384062 -5.165391 36.373067 0 0 0
489 1 -3.781329 -3.781329 36.373067 0 0 0
490 1 -4.631163 -2.673803 36.373067 0 0 0
503 1 -2.04644 -4.940544 37.585503 0 0 0
504 1 -3.255416 -4.242541 37.585503 0 0 0
505 1 -4.940544 -2.04644 37.585503 0 0 0
506 1 -5.301857 -0.698003 37.585503 0 0 0
518 1 -1.384062 -5.165391 38.797938 0 0 0
519 1 -3.781329 -3.781329 38.797938 0 0 0
520 1 -4.631163 -2.673803 38.797938 0 0 0
533 1 -2.04644 -4.940544 40.010374 0 0 0
534 1 -3.255416 -4.242541 40.010374 0 0 0
535 1 -4.940544 -2.04644 40.010374 0 0 0
536 1 -5.301857 -0.698003 40.010374 0 0 0
561 2 -2.088038 -0.828285 2.603933 0 0 0
563 2 -0.842638 -1.030985 3.182233 0 0 0
569 2 -0.488538 -2.919085 1.744933 0 0 0
570 2 -1.740738 -2.718185 1.172133 0 0 0
571 2 -0.037038 -2.074185 2.753733 0 0 0
572 2 -2.546338 -1.670785 1.602633 0 0 0
573 2 -3.257938 -0.919885 0.678533 0 0 0
574 2 -1.652038 -3.011885 -0.181267 0 0 0
575 2 -2.351938 -2.249685 -1.108567 0 0 0
576 2 -3.162038 -1.200685 -0.679367 0 0 0
581 2 -0.341738 -3.396185 -0.450967 0 0 0
586 2 -1.745738 -1.875185 -2.299867 0 0 0
591 2 -3.063338 -0.168685 -1.602267 0 0 0
621 2 -2.088038 -0.828285 12.900333 0 0 0
623 2 -0.842638 -1.030985 13.478633 0 0 0
629 2 -0.488538 -2.919085 12.041333 0 0 0
630 2 -1.740738 -2.718185 11.468533 0 0 0
631 2 -0.037038 -2.074185 13.050133 0 0 0
632 2 -2.546338 -1.670785 11.899033 0 0 0
633 2 -3.257938 -0.919885 10.974933 0 0 0
634 2 -1.652038 -3.011885 10.115133 0 0 0
635 2 -2.351938 -2.249685 9.187833 0 0 0
636 2 -3.162038 -1.200685 9.617033 0 0 0
641 2 -0.341738 -3.396185 9.845433 0 0 0
645 2 -2.180538 -0.584085 7.706933 0 0 0
646 2 -1.745738 -1.875185 7.996533 0 0 0
647 2 -0.436238 -2.252685 7.720333 0 0 0
651 2 -3.063338 -0.168685 8.694133 0 0 0
681 2 -2.088038 -0.828285 23.196733 0 0 0
683 2 -0.842638 -1.030985 23.775033 0 0 0
689 2 -0.488538 -2.919085 22.337733 0 0 0
690 2 -1.740738 -2.718185 21.764933 0 0 0
691 2 -0.037038 -2.074185 23.346533 0 0 0
692 2 -2.546338 -1.670785 22.195433 0 0 0
693 2 -3.257938 -0.919885 21.271333 0 0 0
694 2 -1.652038 -3.011885 20.411533 0 0 0
695 2 -2.351938 -2.249685 19.484233 0 0 0
696 2 -3.162038 -1.200685 19.913433 0 0 0
701 2 -0.341738 -3.396185 20.141833 0 0 0
705 2 -2.180538 -0.584085 18.003333 0 0 0
706 2 -1.745738 -1.875185 18.292933 0 0 0
707 2 -0.436238 -2.252685 18.016733 0 0 0
711 2 -3.063338 -0.168685 18.990533 0 0 0
741 2 -2.088038 -0.828285 33.493133 0 0 0
743 2 -0.842638 -1.030985 34.071433 0 0 0
749 2 -0.488538 -2.919085 32.634133 0 0 0
750 2 -1.740738 -2.718185 32.061333 0 0 0
751 2 -0.037038 -2.074185 33.642933 0 0 0
752 2 -2.546338 -1.670785 32.491833 0 0 0
753 2 -3.257938 -0.919885 31.567733 0 0 0
754 2 -1.652038 -3.011885 30.707933 0 0 0
755 2 -2.351938 -2.249685 29.780633 0 0 0
756 2 -3.162038 -1.200685 30.209833 0 0 0
761 2 -0.341738 -3.396185 30.438233 0 0 0
765 2 -2.180538 -0.584085 28.299733 0 0 0
766 2 -1.745738 -1.875185 28.589333 0 0 0
767 2 -0.436238 -2.252685 28.313133 0 0 0
771 2 -3.063338 -0.168685 29.286933 0 0 0
790 1 -1.384062 -5.165391 41.2228092202 0 0 0
791 1 -3.781329 -3.781329 41.2228092202 0 0 0
792 1 -4.631163 -2.673803 41.2228092202 0 0 0
805 1 -2.04644 -4.940544 42.435245220199995 0 0 0
806 1 -3.255416 -4.242541 42.435245220199995 0 0 0
807 1 -4.940544 -2.04644 42.435245220199995 0 0 0
808 1 -5.301857 -0.698003 42.435245220199995 0 0 0
820 1 -1.384062 -5.165391 43.6476802202 0 0 0
821 1 -3.781329 -3.781329 43.6476802202 0 0 0
822 1 -4.631163 -2.673803 43.6476802202 0 0 0
835 1 -2.04644 -4.940544 44.8601162202 0 0 0
836 1 -3.255416 -4.242541 44.8601162202 0 0 0
837 1 -4.940544 -2.04644 44.8601162202 0 0 0
838 1 -5.301857 -0.698003 44.8601162202 0 0 0
850 1 -1.384062 -5.165391 46.0725512202 0 0 0
851 1 -3.781329 -3.781329 46.0725512202 0 0 0
852 1 -4.631163 -2.673803 46.0725512202 0 0 0
865 1 -2.04644 -4.940544 47.2849872202 0 0 0
866 1 -3.255416 -4.242541 47.2849872202 0 0 0
867 1 -4.940544 -2.04644 47.2849872202 0 0 0
868 1 -5.301857 -0.698003 47.2849872202 0 0 0
881 1 -3.781329 -3.781329 48.4974222202 0 0 0
882 1 -4.631163 -2.673803 48.4974222202 0 0 0
896 1 -1.384062 -5.165391 48.4974222202 0 0 0
897 1 -4.940544 -2.04644 49.7098582202 0 0 0
898 1 -5.301857 -0.698003 49.7098582202 0 0 0
911 1 -2.04644 -4.940544 49.7098582202 0 0 0
912 1 -3.255416 -4.242541 49.7098582202 0 0 0
926 1 -1.384062 -5.165391 50.9222942202 0 0 0
927 1 -3.781329 -3.781329 50.9222942202 0 0 0
928 1 -4.631163 -2.673803 50.9222942202 0 0 0
941 1 -2.04644 -4.940544 52.1347292202 0 0 0
942 1 -3.255416 -4.242541 52.1347292202 0 0 0
943 1 -4.940544 -2.04644 52.1347292202 0 0 0
944 1 -5.301857 -0.698003 52.1347292202 0 0 0
956 1 -1.384062 -5.165391 53.3471652202 0 0 0
957 1 -3.781329 -3.781329 53.3471652202 0 0 0
958 1 -4.631163 -2.673803 53.3471652202 0 0 0
971 1 -2.04644 -4.940544 54.5596002202 0 0 0
972 1 -3.255416 -4.242541 54.5596002202 0 0 0
973 1 -4.940544 -2.04644 54.5596002202 0 0 0
974 1 -5.301857 -0.698003 54.5596002202 0 0 0
986 1 -1.384062 -5.165391 55.7720362202 0 0 0
987 1 -3.781329 -3.781329 55.7720362202 0 0 0
988 1 -4.631163 -2.673803 55.7720362202 0 0 0
1001 1 -2.04644 -4.940544 56.9844712202 0 0 0
1002 1 -3.255416 -4.242541 56.9844712202 0 0 0
1003 1 -4.940544 -2.04644 56.9844712202 0 0 0
1004 1 -5.301857 -0.698003 56.9844712202 0 0 0
1016 1 -1.384062 -5.165391 58.1969072202 0 0 0
1017 1 -3.781329 -3.781329 58.1969072202 0 0 0
1018 1 -4.631163 -2.673803 58.1969072202 0 0 0
1031 1 -2.04644 -4.940544 59.4093422202 0 0 0
1032 1 -3.255416 -4.242541 59.4093422202 0 0 0
1033 1 -4.940544 -2.04644 59.4093422202 0 0 0
1034 1 -5.301857 -0.698003 59.4093422202 0 0 0
1046 1 -1.384062 -5.165391 60.6217782202 0 0 0
1047 1 -3.781329 -3.781329 60.6217782202 0 0 0
1048 1 -4.631163 -2.673803 60.6217782202 0 0 0
1061 1 -2.04644 -4.940544 61.834214220199996 0 0 0
1062 1 -3.255416 -4.242541 61.834214220199996 0 0 0
1063 1 -4.940544 -2.04644 61.834214220199996 0 0 0
1064 1 -5.301857 -0.698003 61.834214220199996 0 0 0
1076 1 -1.384062 -5.165391 63.046649220199996 0 0 0
1077 1 -3.781329 -3.781329 63.046649220199996 0 0 0
1078 1 -4.631163 -2.673803 63.046649220199996 0 0 0
1091 1 -2.04644 -4.940544 64.2590852202 0 0 0
1092 1 -3.255416 -4.242541 64.2590852202 0 0 0
1093 1 -4.940544 -2.04644 64.2590852202 0 0 0
1094 1 -5.301857 -0.698003 64.2590852202 0 0 0
1106 1 -1.384062 -5.165391 65.4715202202 0 0 0
1107 1 -3.781329 -3.781329 65.4715202202 0 0 0
1108 1 -4.631163 -2.673803 65.4715202202 0 0 0
1345 2 -2.088038 -0.828285 43.826742220199996 0 0 0
1347 2 -0.842638 -1.030985 44.4050422202 0 0 0
1353 2 -0.488538 -2.919085 42.9677422202 0 0 0
1354 2 -1.740738 -2.718185 42.3949422202 0 0 0
1355 2 -0.037038 -2.074185 43.976542220199995 0 0 0
1356 2 -2.546338 -1.670785 42.825442220199996 0 0 0
1357 2 -3.257938 -0.919885 41.9013422202 0 0 0
1358 2 -1.652038 -3.011885 41.0415422202 0 0 0
1359 2 -2.351938 -2.249685 40.1142422202 0 0 0
1360 2 -3.162038 -1.200685 40.5434422202 0 0 0
1365 2 -0.341738 -3.396185 40.7718422202 0 0 0
1369 2 -2.180538 -0.584085 38.6333422202 0 0 0
1370 2 -1.745738 -1.875185 38.9229422202 0 0 0
1371 2 -0.436238 -2.252685 38.6467422202 0 0 0
1375 2 -3.063338 -0.168685 39.6205422202 0 0 0
1405 2 -2.088038 -0.828285 54.123142220199995 0 0 0
1407 2 -0.842638 -1.030985 54.7014422202 0 0 0
1413 2 -0.488538 -2.919085 53.2641422202 0 0 0
1414 2 -1.740738 -2.718185 52.6913422202 0 0 0
1415 2 -0.037038 -2.074185 54.2729422202 0 0 0
1416 2 -2.546338 -1.670785 53.121842220199994 0 0 0
1417 2 -3.257938 -0.919885 52.1977422202 0 0 0
1418 2 -1.652038 -3.011885 51.3379422202 0 0 0
1419 2 -2.351938 -2.249685 50.410642220199996 0 0 0
1420 2 -3.162038 -1.200685 50.8398422202 0 0 0
1425 2 -0.341738 -3.396185 51.0682422202 0 0 0
1429 2 -2.180538 -0.584085 48.9297422202 0 0 0
1430 2 -1.745738 -1.875185 49.2193422202 0 0 0
1431 2 -0.436238 -2.252685 48.9431422202 0 0 0
1435 2 -3.063338 -0.168685 49.9169422202 0 0 0
1465 2 -2.088038 -0.828285 64.4195422202 0 0 0
1467 2 -0.842638 -1.030985 64.9978422202 0 0 0
1473 2 -0.488538 -2.919085 63.5605422202 0 0 0
1474 2 -1.740738 -2.718185 62.9877422202 0 0 0
1475 2 -0.037038 -2.074185 64.5693422202 0 0 0
1476 2 -2.546338 -1.670785 63.4182422202 0 0 0
1477 2 -3.257938 -0.919885 62.4941422202 0 0 0
1478 2 -1.652038 -3.011885 61.6343422202 0 0 0
1479 2 -2.351938 -2.249685 60.707042220199995 0 0 0
1480 2 -3.162038 -1.200685 61.1362422202 0 0 0
1485 2 -0.341738 -3.396185 61.3646422202 0 0 0
1489 2 -2.180538 -0.584085 59.2261422202 0 0 0
1490 2 -1.745738 -1.875185 59.515742220199996 0 0 0
1491 2 -0.436238 -2.252685 59.23954222019999 0 0 0
1495 2 -3.063338 -0.168685 60.2133422202 0 0 0
3669 1 -2.04644 -4.940544 -1.2124352202000068 0 0 1
3670 1 -3.255416 -4.242541 -1.2124352202000068 0 0 1
3671 1 -4.940544 -2.04644 -1.2124352202000068 0 0 1
3672 1 -5.301857 -0.698003 -1.2124352202000068 0 0 1
1121 1 -2.04644 -4.940544 66.6839562202 0 0 0
1122 1 -3.255416 -4.242541 66.6839562202 0 0 0
1123 1 -4.940544 -2.04644 66.6839562202 0 0 0
1124 1 -5.301857 -0.698003 66.6839562202 0 0 0
1137 1 -3.781329 -3.781329 67.8963912202 0 0 0
1138 1 -4.631163 -2.673803 67.8963912202 0 0 0
1152 1 -1.384062 -5.165391 67.8963912202 0 0 0
1153 1 -4.940544 -2.04644 69.1088272202 0 0 0
1154 1 -5.301857 -0.698003 69.1088272202 0 0 0
1167 1 -2.04644 -4.940544 69.1088272202 0 0 0
1168 1 -3.255416 -4.242541 69.1088272202 0 0 0
1182 1 -1.384062 -5.165391 70.3212632202 0 0 0
1183 1 -3.781329 -3.781329 70.3212632202 0 0 0
1184 1 -4.631163 -2.673803 70.3212632202 0 0 0
1197 1 -2.04644 -4.940544 71.5336982202 0 0 0
1198 1 -3.255416 -4.242541 71.5336982202 0 0 0
1199 1 -4.940544 -2.04644 71.5336982202 0 0 0
1200 1 -5.301857 -0.698003 71.5336982202 0 0 0
1212 1 -1.384062 -5.165391 72.74613422019999 0 0 0
1213 1 -3.781329 -3.781329 72.74613422019999 0 0 0
1214 1 -4.631163 -2.673803 72.74613422019999 0 0 0
1227 1 -2.04644 -4.940544 73.95856922019999 0 0 0
1228 1 -3.255416 -4.242541 73.95856922019999 0 0 0
1229 1 -4.940544 -2.04644 73.95856922019999 0 0 0
1230 1 -5.301857 -0.698003 73.95856922019999 0 0 0
1242 1 -1.384062 -5.165391 75.1710052202 0 0 0
1243 1 -3.781329 -3.781329 75.1710052202 0 0 0
1244 1 -4.631163 -2.673803 75.1710052202 0 0 0
1257 1 -2.04644 -4.940544 76.3834402202 0 0 0
1258 1 -3.255416 -4.242541 76.3834402202 0 0 0
1259 1 -4.940544 -2.04644 76.3834402202 0 0 0
1260 1 -5.301857 -0.698003 76.3834402202 0 0 0
1272 1 -1.384062 -5.165391 77.5958762202 0 0 0
1273 1 -3.781329 -3.781329 77.5958762202 0 0 0
1274 1 -4.631163 -2.673803 77.5958762202 0 0 0
1287 1 -2.04644 -4.940544 78.80831222020001 0 0 0
1288 1 -3.255416 -4.242541 78.80831222020001 0 0 0
1289 1 -4.940544 -2.04644 78.80831222020001 0 0 0
1290 1 -5.301857 -0.698003 78.80831222020001 0 0 0
1302 1 -1.384062 -5.165391 80.02074722020001 0 0 0
1303 1 -3.781329 -3.781329 80.02074722020001 0 0 0
1304 1 -4.631163 -2.673803 80.02074722020001 0 0 0
1317 1 -2.04644 -4.940544 81.2331832202 0 0 0
1318 1 -3.255416 -4.242541 81.2331832202 0 0 0
1319 1 -4.940544 -2.04644 81.2331832202 0 0 0
1320 1 -5.301857 -0.698003 81.2331832202 0 0 0
1525 2 -2.088038 -0.828285 74.71594222019999 0 0 0
1527 2 -0.842638 -1.030985 75.2942422202 0 0 0
1533 2 -0.488538 -2.919085 73.8569422202 0 0 0
1534 2 -1.740738 -2.718185 73.2841422202 0 0 0
1535 2 -0.037038 -2.074185 74.86574222019999 0 0 0
1536 2 -2.546338 -1.670785 73.7146422202 0 0 0
1537 2 -3.257938 -0.919885 72.7905422202 0 0 0
1538 2 -1.652038 -3.011885 71.9307422202 0 0 0
1539 2 -2.351938 -2.249685 71.0034422202 0 0 0
1540 2 -3.162038 -1.200685 71.4326422202 0 0 0
1545 2 -0.341738 -3.396185 71.6610422202 0 0 0
1549 2 -2.180538 -0.584085 69.5225422202 0 0 0
1550 2 -1.745738 -1.875185 69.8121422202 0 0 0
1551 2 -0.436238 -2.252685 69.5359422202 0 0 0
1555 2 -3.063338 -0.168685 70.5097422202 0 0 0
1574 1 -1.384062 -5.165391 82.4456184404 0 0 0
1575 1 -3.781329 -3.781329 82.4456184404 0 0 0
1576 1 -4.631163 -2.673803 82.4456184404 0 0 0
1589 1 -2.04644 -4.940544 83.6580544404 0 0 0
1590 1 -3.255416 -4.242541 83.6580544404 0 0 0
1591 1 -4.940544 -2.04644 83.6580544404 0 0 0
1592 1 -5.301857 -0.698003 83.6580544404 0 0 0
1604 1 -1.384062 -5.165391 84.8704894404 0 0 0
1605 1 -3.781329 -3.781329 84.8704894404 0 0 0
1606 1 -4.631163 -2.673803 84.8704894404 0 0 0
1619 1 -2.04644 -4.940544 86.0829254404 0 0 0
1620 1 -3.255416 -4.242541 86.0829254404 0 0 0
1621 1 -4.940544 -2.04644 86.0829254404 0 0 0
1622 1 -5.301857 -0.698003 86.0829254404 0 0 0
1634 1 -1.384062 -5.165391 87.2953604404 0 0 0
1635 1 -3.781329 -3.781329 87.2953604404 0 0 0
1636 1 -4.631163 -2.673803 87.2953604404 0 0 0
1649 1 -2.04644 -4.940544 88.5077964404 0 0 0
1650 1 -3.255416 -4.242541 88.5077964404 0 0 0
1651 1 -4.940544 -2.04644 88.5077964404 0 0 0
1652 1 -5.301857 -0.698003 88.5077964404 0 0 0
1665 1 -3.781329 -3.781329 89.7202314404 0 0 0
1666 1 -4.631163 -2.673803 89.7202314404 0 0 0
1680 1 -1.384062 -5.165391 89.7202314404 0 0 0
1681 1 -4.940544 -2.04644 90.9326674404 0 0 0
1682 1 -5.301857 -0.698003 90.9326674404 0 0 0
1695 1 -2.04644 -4.940544 90.9326674404 0 0 0
1696 1 -3.255416 -4.242541 90.9326674404 0 0 0
1710 1 -1.384062 -5.165391 92.14510344039999 0 0 0
1711 1 -3.781329 -3.781329 92.14510344039999 0 0 0
1712 1 -4.631163 -2.673803 92.14510344039999 0 0 0
1725 1 -2.04644 -4.940544 93.35753844039999 0 0 0
1726 1 -3.255416 -4.242541 93.35753844039999 0 0 0
1727 1 -4.940544 -2.04644 93.35753844039999 0 0 0
1728 1 -5.301857 -0.698003 93.35753844039999 0 0 0
1740 1 -1.384062 -5.165391 94.5699744404 0 0 0
1741 1 -3.781329 -3.781329 94.5699744404 0 0 0
1742 1 -4.631163 -2.673803 94.5699744404 0 0 0
1755 1 -2.04644 -4.940544 95.7824094404 0 0 0
1756 1 -3.255416 -4.242541 95.7824094404 0 0 0
1757 1 -4.940544 -2.04644 95.7824094404 0 0 0
1758 1 -5.301857 -0.698003 95.7824094404 0 0 0
1770 1 -1.384062 -5.165391 96.9948454404 0 0 0
1771 1 -3.781329 -3.781329 96.9948454404 0 0 0
1772 1 -4.631163 -2.673803 96.9948454404 0 0 0
1785 1 -2.04644 -4.940544 98.2072804404 0 0 0
1786 1 -3.255416 -4.242541 98.2072804404 0 0 0
1787 1 -4.940544 -2.04644 98.2072804404 0 0 0
1788 1 -5.301857 -0.698003 98.2072804404 0 0 0
1800 1 -1.384062 -5.165391 99.4197164404 0 0 0
1801 1 -3.781329 -3.781329 99.4197164404 0 0 0
1802 1 -4.631163 -2.673803 99.4197164404 0 0 0
1815 1 -2.04644 -4.940544 100.6321514404 0 0 0
1816 1 -3.255416 -4.242541 100.6321514404 0 0 0
1817 1 -4.940544 -2.04644 100.6321514404 0 0 0
1818 1 -5.301857 -0.698003 100.6321514404 0 0 0
1830 1 -1.384062 -5.165391 101.8445874404 0 0 0
1831 1 -3.781329 -3.781329 101.8445874404 0 0 0
1832 1 -4.631163 -2.673803 101.8445874404 0 0 0
1845 1 -2.04644 -4.940544 103.0570234404 0 0 0
1846 1 -3.255416 -4.242541 103.0570234404 0 0 0
1847 1 -4.940544 -2.04644 103.0570234404 0 0 0
1848 1 -5.301857 -0.698003 103.0570234404 0 0 0
1860 1 -1.384062 -5.165391 104.2694584404 0 0 0
1861 1 -3.781329 -3.781329 104.2694584404 0 0 0
1862 1 -4.631163 -2.673803 104.2694584404 0 0 0
1875 1 -2.04644 -4.940544 105.4818944404 0 0 0
1876 1 -3.255416 -4.242541 105.4818944404 0 0 0
1877 1 -4.940544 -2.04644 105.4818944404 0 0 0
1878 1 -5.301857 -0.698003 105.4818944404 0 0 0
1890 1 -1.384062 -5.165391 106.6943294404 0 0 0
1891 1 -3.781329 -3.781329 106.6943294404 0 0 0
1892 1 -4.631163 -2.673803 106.6943294404 0 0 0
1905 1 -2.04644 -4.940544 107.9067654404 0 0 0
1906 1 -3.255416 -4.242541 107.9067654404 0 0 0
1907 1 -4.940544 -2.04644 107.9067654404 0 0 0
1908 1 -5.301857 -0.698003 107.9067654404 0 0 0
1921 1 -3.781329 -3.781329 109.1192004404 0 0 0
1922 1 -4.631163 -2.673803 109.1192004404 0 0 0
1936 1 -1.384062 -5.165391 109.1192004404 0 0 0
1937 1 -4.940544 -2.04644 110.33163644039999 0 0 0
1938 1 -5.301857 -0.698003 110.33163644039999 0 0 0
1951 1 -2.04644 -4.940544 110.33163644039999 0 0 0
1952 1 -3.255416 -4.242541 110.33163644039999 0 0 0
1966 1 -1.384062 -5.165391 111.5440724404 0 0 0
1967 1 -3.781329 -3.781329 111.5440724404 0 0 0
1968 1 -4.631163 -2.673803 111.5440724404 0 0 0
1981 1 -2.04644 -4.940544 112.7565074404 0 0 0
1982 1 -3.255416 -4.242541 112.7565074404 0 0 0
1983 1 -4.940544 -2.04644 112.7565074404 0 0 0
1984 1 -5.301857 -0.698003 112.7565074404 0 0 0
1996 1 -1.384062 -5.165391 113.9689434404 0 0 0
1997 1 -3.781329 -3.781329 113.9689434404 0 0 0
1998 1 -4.631163 -2.673803 113.9689434404 0 0 0
2011 1 -2.04644 -4.940544 115.1813784404 0 0 0
2012 1 -3.255416 -4.242541 115.1813784404 0 0 0
2013 1 -4.940544 -2.04644 115.1813784404 0 0 0
2014 1 -5.301857 -0.698003 115.1813784404 0 0 0
2026 1 -1.384062 -5.165391 116.3938144404 0 0 0
2027 1 -3.781329 -3.781329 116.3938144404 0 0 0
2028 1 -4.631163 -2.673803 116.3938144404 0 0 0
2041 1 -2.04644 -4.940544 117.6062494404 0 0 0
2042 1 -3.255416 -4.242541 117.6062494404 0 0 0
2043 1 -4.940544 -2.04644 117.6062494404 0 0 0
2044 1 -5.301857 -0.698003 117.6062494404 0 0 0
2056 1 -1.384062 -5.165391 118.8186854404 0 0 0
2057 1 -3.781329 -3.781329 118.8186854404 0 0 0
2058 1 -4.631163 -2.673803 118.8186854404 0 0 0
2071 1 -2.04644 -4.940544 120.0311214404 0 0 0
2072 1 -3.255416 -4.242541 120.0311214404 0 0 0
2073 1 -4.940544 -2.04644 120.0311214404 0 0 0
2074 1 -5.301857 -0.698003 120.0311214404 0 0 0
2086 1 -1.384062 -5.165391 121.2435564404 0 0 0
2087 1 -3.781329 -3.781329 121.2435564404 0 0 0
2088 1 -4.631163 -2.673803 121.2435564404 0 0 0
2101 1 -2.04644 -4.940544 122.4559924404 0 0 0
2102 1 -3.255416 -4.242541 122.4559924404 0 0 0
2103 1 -4.940544 -2.04644 122.4559924404 0 0 0
2104 1 -5.301857 -0.698003 122.4559924404 0 0 0
2129 2 -2.088038 -0.828285 85.0495514404 0 0 0
2131 2 -0.842638 -1.030985 85.6278514404 0 0 0
2137 2 -0.488538 -2.919085 84.1905514404 0 0 0
2138 2 -1.740738 -2.718185 83.6177514404 0 0 0
2139 2 -0.037038 -2.074185 85.1993514404 0 0 0
2140 2 -2.546338 -1.670785 84.0482514404 0 0 0
2141 2 -3.257938 -0.919885 83.1241514404 0 0 0
2142 2 -1.652038 -3.011885 82.26435144039999 0 0 0
2143 2 -2.351938 -2.249685 81.3370514404 0 0 0
2144 2 -3.162038 -1.200685 81.7662514404 0 0 0
2149 2 -0.341738 -3.396185 81.99465144039999 0 0 0
2153 2 -2.180538 -0.584085 79.8561514404 0 0 0
2154 2 -1.745738 -1.875185 80.14575144039999 0 0 0
2155 2 -0.436238 -2.252685 79.86955144039999 0 0 0
2159 2 -3.063338 -0.168685 80.8433514404 0 0 0
2189 2 -2.088038 -0.828285 95.3459514404 0 0 0
2191 2 -0.842638 -1.030985 95.9242514404 0 0 0
2197 2 -0.488538 -2.919085 94.48695144039999 0 0 0
2198 2 -1.740738 -2.718185 93.91415144039999 0 0 0
2199 2 -0.037038 -2.074185 95.4957514404 0 0 0
2200 2 -2.546338 -1.670785 94.3446514404 0 0 0
2201 2 -3.257938 -0.919885 93.4205514404 0 0 0
2202 2 -1.652038 -3.011885 92.5607514404 0 0 0
2203 2 -2.351938 -2.249685 91.6334514404 0 0 0
2204 2 -3.162038 -1.200685 92.0626514404 0 0 0
2209 2 -0.341738 -3.396185 92.2910514404 0 0 0
2213 2 -2.180538 -0.584085 90.1525514404 0 0 0
2214 2 -1.745738 -1.875185 90.4421514404 0 0 0
2215 2 -0.436238 -2.252685 90.1659514404 0 0 0
2219 2 -3.063338 -0.168685 91.1397514404 0 0 0
2249 2 -2.088038 -0.828285 105.64235144039999 0 0 0
2251 2 -0.842638 -1.030985 106.22065144039999 0 0 0
2257 2 -0.488538 -2.919085 104.7833514404 0 0 0
2258 2 -1.740738 -2.718185 104.2105514404 0 0 0
2259 2 -0.037038 -2.074185 105.7921514404 0 0 0
2260 2 -2.546338 -1.670785 104.64105144039999 0 0 0
2261 2 -3.257938 -0.919885 103.7169514404 0 0 0
2262 2 -1.652038 -3.011885 102.8571514404 0 0 0
2263 2 -2.351938 -2.249685 101.9298514404 0 0 0
2264 2 -3.162038 -1.200685 102.3590514404 0 0 0
2269 2 -0.341738 -3.396185 102.5874514404 0 0 0
2273 2 -2.180538 -0.584085 100.4489514404 0 0 0
2274 2 -1.745738 -1.875185 100.7385514404 0 0 0
2275 2 -0.436238 -2.252685 100.4623514404 0 0 0
2279 2 -3.063338 -0.168685 101.4361514404 0 0 0
2309 2 -2.088038 -0.828285 115.9387514404 0 0 0
2311 2 -0.842638 -1.030985 116.5170514404 0 0 0
2317 2 -0.488538 -2.919085 115.0797514404 0 0 0
2318 2 -1.740738 -2.718185 114.5069514404 0 0 0
2319 2 -0.037038 -2.074185 116.0885514404 0 0 0
2320 2 -2.546338 -1.670785 114.9374514404 0 0 0
2321 2 -3.257938 -0.919885 114.0133514404 0 0 0
2322 2 -1.652038 -3.011885 113.1535514404 0 0 0
2323 2 -2.351938 -2.249685 112.2262514404 0 0 0
2324 2 -3.162038 -1.200685 112.6554514404 0 0 0
2329 2 -0.341738 -3.396185 112.8838514404 0 0 0
2333 2 -2.180538 -0.584085 110.7453514404 0 0 0
2334 2 -1.745738 -1.875185 111.0349514404 0 0 0
2335 2 -0.436238 -2.252685 110.7587514404 0 0 0
2339 2 -3.063338 -0.168685 111.7325514404 0 0 0
2358 1 -1.384062 -5.165391 123.6684276606 0 0 0
2359 1 -3.781329 -3.781329 123.6684276606 0 0 0
2360 1 -4.631163 -2.673803 123.6684276606 0 0 0
2373 1 -2.04644 -4.940544 124.8808636606 0 0 0
2374 1 -3.255416 -4.242541 124.8808636606 0 0 0
2375 1 -4.940544 -2.04644 124.8808636606 0 0 0
2376 1 -5.301857 -0.698003 124.8808636606 0 0 0
2388 1 -1.384062 -5.165391 126.0932986606 0 0 0
2389 1 -3.781329 -3.781329 126.0932986606 0 0 0
2390 1 -4.631163 -2.673803 126.0932986606 0 0 0
2403 1 -2.04644 -4.940544 127.3057346606 0 0 0
2404 1 -3.255416 -4.242541 127.3057346606 0 0 0
2405 1 -4.940544 -2.04644 127.3057346606 0 0 0
2406 1 -5.301857 -0.698003 127.3057346606 0 0 0
2418 1 -1.384062 -5.165391 128.5181696606 0 0 0
2419 1 -3.781329 -3.781329 128.5181696606 0 0 0
2420 1 -4.631163 -2.673803 128.5181696606 0 0 0
2433 1 -2.04644 -4.940544 129.7306056606 0 0 0
2434 1 -3.255416 -4.242541 129.7306056606 0 0 0
2435 1 -4.940544 -2.04644 129.7306056606 0 0 0
2436 1 -5.301857 -0.698003 129.7306056606 0 0 0
2449 1 -3.781329 -3.781329 130.9430406606 0 0 0
2450 1 -4.631163 -2.673803 130.9430406606 0 0 0
2464 1 -1.384062 -5.165391 130.9430406606 0 0 0
2465 1 -4.940544 -2.04644 132.15547666060002 0 0 0
2466 1 -5.301857 -0.698003 132.15547666060002 0 0 0
2479 1 -2.04644 -4.940544 132.15547666060002 0 0 0
2480 1 -3.255416 -4.242541 132.15547666060002 0 0 0
2494 1 -1.384062 -5.165391 133.3679126606 0 0 0
2495 1 -3.781329 -3.781329 133.3679126606 0 0 0
2496 1 -4.631163 -2.673803 133.3679126606 0 0 0
2509 1 -2.04644 -4.940544 134.5803476606 0 0 0
2510 1 -3.255416 -4.242541 134.5803476606 0 0 0
2511 1 -4.940544 -2.04644 134.5803476606 0 0 0
2512 1 -5.301857 -0.698003 134.5803476606 0 0 0
2913 2 -2.088038 -0.828285 126.2723606606 0 0 0
2915 2 -0.842638 -1.030985 126.8506606606 0 0 0
2921 2 -0.488538 -2.919085 125.4133606606 0 0 0
2922 2 -1.740738 -2.718185 124.8405606606 0 0 0
2923 2 -0.037038 -2.074185 126.4221606606 0 0 0
2924 2 -2.546338 -1.670785 125.2710606606 0 0 0
2925 2 -3.257938 -0.919885 124.3469606606 0 0 0
2926 2 -1.652038 -3.011885 123.4871606606 0 0 0
2927 2 -2.351938 -2.249685 122.55986066060001 0 0 0
2928 2 -3.162038 -1.200685 122.9890606606 0 0 0
2933 2 -0.341738 -3.396185 123.2174606606 0 0 0
2937 2 -2.180538 -0.584085 121.0789606606 0 0 0
2938 2 -1.745738 -1.875185 121.3685606606 0 0 0
2939 2 -0.436238 -2.252685 121.09236066060001 0 0 0
2943 2 -3.063338 -0.168685 122.0661606606 0 0 0
2985 2 -3.257938 -0.919885 134.6433606606 0 0 0
2986 2 -1.652038 -3.011885 133.78356066060002 0 0 0
2987 2 -2.351938 -2.249685 132.85626066060001 0 0 0
2988 2 -3.162038 -1.200685 133.2854606606 0 0 0
2993 2 -0.341738 -3.396185 133.51386066060002 0 0 0
2997 2 -2.180538 -0.584085 131.3753606606 0 0 0
2998 2 -1.745738 -1.875185 131.6649606606 0 0 0
2999 2 -0.436238 -2.252685 131.3887606606 0 0 0
3003 2 -3.063338 -0.168685 132.3625606606 0 0 0
585 2 -2.180538 -0.584085 203.52457910099997 0 0 -1
587 2 -0.436238 -2.252685 203.537979101 0 0 -1
2524 1 -1.384062 -5.165391 135.7927836606 0 0 0
2525 1 -3.781329 -3.781329 135.7927836606 0 0 0
2526 1 -4.631163 -2.673803 135.7927836606 0 0 0
2539 1 -2.04644 -4.940544 137.0052186606 0 0 0
2540 1 -3.255416 -4.242541 137.0052186606 0 0 0
2541 1 -4.940544 -2.04644 137.0052186606 0 0 0
2542 1 -5.301857 -0.698003 137.0052186606 0 0 0
2554 1 -1.384062 -5.165391 138.2176546606 0 0 0
2555 1 -3.781329 -3.781329 138.2176546606 0 0 0
2556 1 -4.631163 -2.673803 138.2176546606 0 0 0
2569 1 -2.04644 -4.940544 139.4300896606 0 0 0
2570 1 -3.255416 -4.242541 139.4300896606 0 0 0
2571 1 -4.940544 -2.04644 139.4300896606 0 0 0
2572 1 -5.301857 -0.698003 139.4300896606 0 0 0
2584 1 -1.384062 -5.165391 140.6425256606 0 0 0
2585 1 -3.781329 -3.781329 140.6425256606 0 0 0
2586 1 -4.631163 -2.673803 140.6425256606 0 0 0
2599 1 -2.04644 -4.940544 141.8549606606 0 0 0
2600 1 -3.255416 -4.242541 141.8549606606 0 0 0
2601 1 -4.940544 -2.04644 141.8549606606 0 0 0
2602 1 -5.301857 -0.698003 141.8549606606 0 0 0
2614 1 -1.384062 -5.165391 143.0673966606 0 0 0
2615 1 -3.781329 -3.781329 143.0673966606 0 0 0
2616 1 -4.631163 -2.673803 143.0673966606 0 0 0
2629 1 -2.04644 -4.940544 144.2798326606 0 0 0
2630 1 -3.255416 -4.242541 144.2798326606 0 0 0
2631 1 -4.940544 -2.04644 144.2798326606 0 0 0
2632 1 -5.301857 -0.698003 144.2798326606 0 0 0
2644 1 -1.384062 -5.165391 145.4922676606 0 0 0
2645 1 -3.781329 -3.781329 145.4922676606 0 0 0
2646 1 -4.631163 -2.673803 145.4922676606 0 0 0
2659 1 -2.04644 -4.940544 146.7047036606 0 0 0
2660 1 -3.255416 -4.242541 146.7047036606 0 0 0
2661 1 -4.940544 -2.04644 146.7047036606 0 0 0
2662 1 -5.301857 -0.698003 146.7047036606 0 0 0
2674 1 -1.384062 -5.165391 147.91713866060002 0 0 0
2675 1 -3.781329 -3.781329 147.91713866060002 0 0 0
2676 1 -4.631163 -2.673803 147.91713866060002 0 0 0
2689 1 -2.04644 -4.940544 149.1295746606 0 0 0
2690 1 -3.255416 -4.242541 149.1295746606 0 0 0
2691 1 -4.940544 -2.04644 149.1295746606 0 0 0
2692 1 -5.301857 -0.698003 149.1295746606 0 0 0
2705 1 -3.781329 -3.781329 150.3420096606 0 0 0
2706 1 -4.631163 -2.673803 150.3420096606 0 0 0
2720 1 -1.384062 -5.165391 150.3420096606 0 0 0
2721 1 -4.940544 -2.04644 151.5544456606 0 0 0
2722 1 -5.301857 -0.698003 151.5544456606 0 0 0