LAMMPS (2 Aug 2023 - Update 3)
OMP_NUM_THREADS environment is not set. Defaulting to 1 thread. (src/comm.cpp:98)
  using 1 OpenMP thread(s) per MPI task
Reading data file ...
  orthogonal box = (-100 -100 -2.3312511) to (100 100 38.891558)
  3 by 4 by 1 MPI processor grid
  reading atoms ...
  784 atoms
  read_data CPU = 0.068 seconds
Replication is creating a 1x1x5 = 5 times larger system...
  orthogonal box = (-100 -100 -2.3312511) to (100 100 203.78279)
  2 by 2 by 3 MPI processor grid
  3920 atoms
  replicate CPU = 0.001 seconds
System init for write_data ...
WARNING: Communication cutoff is 0.0. No ghost atoms will be generated. Atoms may get lost. (src/comm_brick.cpp:210)
Reading airebo potential file CH.airebo with DATE: 2011-10-25
Reading airebo potential file CH.airebo with DATE: 2011-10-25
Neighbor list info ...
  update: every = 1 steps, delay = 0 steps, check = yes
  max neighbors/atom: 2000, page size: 100000
  master list distance cutoff = 13.2
  ghost atom cutoff = 13.2
  binsize = 6.6, bins = 31 31 32
  5 neighbor lists, perpetual/occasional/extra = 5 0 0
  (1) pair airebo, perpetual, skip from (4)
      attributes: full, newton on, ghost
      pair build: skip/ghost
      stencil: none
      bin: none
  (2) pair airebo, perpetual, skip from (4)
      attributes: full, newton on, ghost
      pair build: skip/ghost
      stencil: none
      bin: none
  (3) pair lj/cut, perpetual, skip from (5)
      attributes: half, newton on, cut 13
      pair build: skip
      stencil: none
      bin: none
  (4) neighbor class addition, perpetual
      attributes: full, newton on, ghost
      pair build: full/bin/ghost
      stencil: full/ghost/bin/3d
      bin: standard
  (5) neighbor class addition, perpetual
      attributes: half, newton on, cut 13
      pair build: half/bin/atomonly/newton
      stencil: half/bin/3d
      bin: standard
Setting up sd style minimization ...
  Unit style    : metal
  Current step  : 0
Per MPI rank memory allocation (min/avg/max) = 8.914 | 9.105 | 9.677 Mbytes
   Step          Temp          E_pair         E_mol          TotEng         Press     
         0   0             -20817.734      0             -20817.734      6493.3023    
        22   0             -27691.276      0             -27691.276      191.11314    
Loop time of 2.89069 on 12 procs for 22 steps with 3920 atoms

70.7% CPU use with 12 MPI tasks x 1 OpenMP threads

Minimization stats:
  Stopping criterion = energy tolerance
  Energy initial, next-to-last, final = 
     -20817.7344869956  -27689.1356752939  -27691.2763053668
  Force two-norm initial, final = 2257.8181 19.649919
  Force max component initial, final = 135.10344 1.8602613
  Final line search alpha, max atom move = 0.048367349 0.089975905
  Iterations, force evaluations = 22 39

MPI task timing breakdown:
Section |  min time  |  avg time  |  max time  |%varavg| %total
---------------------------------------------------------------
Pair    | 0.19507    | 0.24529    | 0.34165    |   7.5 |  8.49
Neigh   | 0          | 0          | 0          |   0.0 |  0.00
Comm    | 0.80329    | 0.89377    | 0.9676     |   5.4 | 30.92
Output  | 0          | 0          | 0          |   0.0 |  0.00
Modify  | 0          | 0          | 0          |   0.0 |  0.00
Other   |            | 1.752      |            |       | 60.60

Nlocal:        326.667 ave         357 max         297 min
Histogram: 3 0 0 0 3 3 0 0 0 3
Nghost:           1480 ave        1519 max        1438 min
Histogram: 1 0 2 2 0 2 3 0 0 2
Neighs:              0 ave           0 max           0 min
Histogram: 12 0 0 0 0 0 0 0 0 0

Total # of neighbors = 0
Ave neighs/atom = 0
Neighbor list builds = 0
Dangerous builds = 0
Setting up Verlet run ...
  Unit style    : metal
  Current step  : 22
  Time step     : 0.001
Per MPI rank memory allocation (min/avg/max) = 9.539 | 9.73 | 10.3 Mbytes
   Step          Temp          E_pair         E_mol          TotEng         Press          Volume    
        22   300           -27691.276      0             -27539.305      210.80164      8244561.8    
Loop time of 0.0109527 on 12 procs for 0 steps with 3920 atoms

69.7% CPU use with 12 MPI tasks x 1 OpenMP threads

MPI task timing breakdown:
Section |  min time  |  avg time  |  max time  |%varavg| %total
---------------------------------------------------------------
Pair    | 0          | 0          | 0          |   0.0 |  0.00
Neigh   | 0          | 0          | 0          |   0.0 |  0.00
Comm    | 0          | 0          | 0          |   0.0 |  0.00
Output  | 0          | 0          | 0          |   0.0 |  0.00
Modify  | 0          | 0          | 0          |   0.0 |  0.00
Other   |            | 0.01095    |            |       |100.00

Nlocal:        326.667 ave         330 max         323 min
Histogram: 1 1 3 0 0 2 0 2 2 1
Nghost:           1482 ave        1497 max        1467 min
Histogram: 2 1 1 1 1 2 0 0 1 3
Neighs:              0 ave           0 max           0 min
Histogram: 12 0 0 0 0 0 0 0 0 0

Total # of neighbors = 0
Ave neighs/atom = 0
Neighbor list builds = 0
Dangerous builds = 0
WARNING: New thermo_style command, previous thermo_modify settings will be lost (src/output.cpp:903)
WARNING: Dump 2 includes no atom IDs and is not sorted by ID. This may complicate post-processing tasks or visualization (src/dump.cpp:221)
Setting up Verlet run ...
  Unit style    : metal
  Current step  : 0
  Time step     : 0.001
Per MPI rank memory allocation (min/avg/max) = 11.04 | 11.23 | 11.8 Mbytes
   Step         PotEng         KinEng         TotEng           Lx             Ly             Lz      
         0  -27691.276      151.97115     -27539.305      200            200            206.11405    
       100  -27633.904      108.19249     -27525.711      200.01821      200.02365      206.2171     
       200  -27622.84       116.50154     -27506.338      200.02196      200.03038      206.32016    
       300  -27624          138.44643     -27485.554      200.0012       200.00266      206.42322    
       400  -27613.525      147.29025     -27466.235      200.01262      200.0203       206.52627    
       500  -27594.203      145.68652     -27448.517      200.01875      200.03534      206.62933    
       600  -27561.869      130.90096     -27430.968      200.00073      200.01066      206.73239    
       700  -27569.049      155.6455      -27413.403      200.01017      200.02513      206.83545    
       800  -27552.779      152.21965     -27400.559      200.01025      200.03545      206.9385     
       900  -27550.952      154.58884     -27396.363      199.99076      200.00917      207.04156    
      1000  -27575.04       167.83388     -27407.206      200.0063       200.02645      207.14462    
      1100  -27579.082      155.19227     -27423.889      200.00362      200.0331       207.24767    
      1200  -27580.314      144.6744      -27435.639      199.98053      200.00618      207.35073    
      1300  -27593.094      153.11751     -27439.976      199.99625      200.0227       207.45379    
      1400  -27570.518      139.32502     -27431.193      199.99863      200.03529      207.55684    
      1500  -27561.096      144.79149     -27416.304      199.9723       200.00849      207.6599     
      1600  -27566.446      162.86711     -27403.579      199.98774      200.02226      207.76296    
      1700  -27554.694      154.85946     -27399.834      199.99371      200.03471      207.86602    
      1800  -27561.789      153.8693      -27407.92       199.96697      200.00901      207.96907    
      1900  -27574.88       156.1719      -27418.709      199.97938      200.0187       208.07213    
      2000  -27566.419      141.98201     -27424.437      199.98322      200.02832      208.17519    
      2100  -27562.45       143.37375     -27419.076      199.96047      200.00997      208.27824    
      2200  -27564.865      158.2566      -27406.609      199.97         200.01801      208.3813     
      2300  -27553.026      154.23641     -27398.79       199.9723       200.02405      208.48436    
      2400  -27560.417      160.13585     -27400.281      199.94989      200.00597      208.58741    
      2500  -27563.187      154.5249      -27408.662      199.96085      200.01658      208.69047    
      2600  -27559.013      144.92771     -27414.085      199.96281      200.0214       208.79353    
      2700  -27554.829      144.94533     -27409.884      199.94105      200.00273      208.89659    
      2800  -27554.855      156.28617     -27398.569      199.94868      200.01192      208.99964    
      2900  -27545.452      154.53461     -27390.918      199.95262      200.01805      209.1027     
      3000  -27549.914      158.4007      -27391.513      199.93125      200.00012      209.20576    
      3100  -27553.883      154.99394     -27398.889      199.93722      200.00695      209.30881    
      3200  -27550.243      145.54289     -27404.701      199.93808      200.01184      209.41187    
      3300  -27549.025      145.87709     -27403.148      199.9196       199.99674      209.51493    
      3400  -27551.679      156.62159     -27395.057      199.92436      200.00295      209.61798    
      3500  -27536.651      149.43443     -27387.217      199.92603      200.00577      209.72104    
      3600  -27536.952      153.95752     -27382.994      199.90719      199.991        209.8241     
      3700  -27539.671      156.60158     -27383.07       199.91224      199.99932      209.92716    
      3800  -27534.623      149.87953     -27384.743      199.91301      199.99924      210.03021    
      3900  -27538.582      152.51067     -27386.071      199.89431      199.98276      210.13327    
      4000  -27542.073      154.01965     -27388.053      199.89859      199.99114      210.23633    
      4100  -27536.025      146.78693     -27389.238      199.8988       199.99201      210.33938    
      4200  -27533.66       148.50578     -27385.154      199.88184      199.97621      210.44244    
      4300  -27529.855      153.24083     -27376.614      199.88488      199.98361      210.5455     
      4400  -27519.608      150.85        -27368.758      199.8832       199.98371      210.64856    
      4500  -27518.587      153.85967     -27364.727      199.86758      199.96885      210.75161    
      4600  -27526.398      158.51688     -27367.881      199.8717       199.97532      210.85467    
      4700  -27526.705      153.90636     -27372.799      199.86639      199.97205      210.95773    
      4800  -27523.576      150.1161      -27373.46       199.85176      199.95963      211.06078    
      4900  -27515.361      147.13753     -27368.223      199.85667      199.96702      211.16384    
      5000  -27512.656      152.50355     -27360.153      199.85006      199.9614       211.2669     
      5100  -27507.759      153.36533     -27354.394      199.83484      199.94841      211.36995    
      5200  -27511.324      156.66183     -27354.663      199.8377       199.95597      211.47301    
      5300  -27511.702      153.66875     -27358.034      199.83168      199.94884      211.57607    
      5400  -27506.836      149.22339     -27357.613      199.81747      199.9374       211.67913    
      5500  -27501.063      148.10669     -27352.956      199.81833      199.9439       211.78218    
      5600  -27497.918      151.70047     -27346.218      199.8106       199.93557      211.88524    
      5700  -27497.379      154.64138     -27342.737      199.79947      199.92517      211.9883     
      5800  -27496.301      153.19366     -27343.107      199.79847      199.9305       212.09135    
      5900  -27495.748      151.00834     -27344.74       199.78859      199.92125      212.19441    
      6000  -27491.776      150.08533     -27341.691      199.7782       199.91187      212.29747    
      6100  -27486.784      150.46942     -27336.314      199.77669      199.9156       212.40052    
      6200  -27485.877      154.037       -27331.84       199.76574      199.90589      212.50358    
      6300  -27481.808      152.76626     -27329.042      199.75541      199.89674      212.60664    
      6400  -27482.791      155.04221     -27327.749      199.75309      199.89882      212.7097     
      6500  -27476.038      149.59254     -27326.445      199.74175      199.88966      212.81275    
      6600  -27475.751      151.832       -27323.919      199.73261      199.88154      212.91581    
      6700  -27471.793      151.35056     -27320.443      199.72867      199.88062      213.01887    
      6800  -27469.827      154.3705      -27315.457      199.71646      199.87156      213.12192    
      6900  -27464.187      156.16224     -27308.025      199.70857      199.8633       213.22498    
      7000  -27459.687      154.47155     -27305.216      199.70404      199.86116      213.32804    
      7100  -27457.209      149.46442     -27307.744      199.69101      199.85287      213.43109    
      7200  -27458.129      152.23811     -27305.891      199.68198      199.84389      213.53415    
      7300  -27456.246      152.46236     -27303.783      199.67671      199.83946      213.63721    
      7400  -27453.798      151.80662     -27301.992      199.66415      199.83264      213.74027    
      7500  -27450.722      150.79637     -27299.926      199.65468      199.82251      213.84332    
      7600  -27448.64       151.49445     -27297.145      199.64866      199.81703      213.94638    
      7700  -27442.855      152.35667     -27290.498      199.63519      199.81133      214.04944    
      7800  -27436.51       151.98061     -27284.529      199.62569      199.80092      214.15249    
      7900  -27437.04       155.62468     -27281.416      199.6193       199.79303      214.25555    
      8000  -27438.739      155.86855     -27282.871      199.60531      199.78658      214.35861    
      8100  -27431.602      149.61092     -27281.991      199.59394      199.77599      214.46166    
      8200  -27430.03       151.44814     -27278.582      199.58713      199.76783      214.56472    
      8300  -27424.917      152.71854     -27272.198      199.57284      199.76133      214.66778    
      8400  -27422.315      155.73275     -27266.582      199.55955      199.7511       214.77084    
      8500  -27416.08       152.53358     -27263.546      199.55289      199.74141      214.87389    
      8600  -27419.031      153.46766     -27265.564      199.53864      199.73268      214.97695    
      8700  -27415.638      151.01543     -27264.623      199.52397      199.72276      215.08001    
      8800  -27409.372      148.78561     -27260.587      199.51657      199.71355      215.18306    
      8900  -27405.952      152.30581     -27253.647      199.50189      199.70306      215.28612    
      9000  -27400.97       153.22117     -27247.749      199.48631      199.69279      215.38918    
      9100  -27397.584      152.46239     -27245.122      199.47833      199.68402      215.49224    
      9200  -27398.711      152.21323     -27246.498      199.46266      199.67145      215.59529    
      9300  -27398.695      154.41917     -27244.276      199.44653      199.66138      215.69835    
      9400  -27390.74       151.09977     -27239.64       199.43759      199.65241      215.80141    
      9500  -27384.594      150.84136     -27233.752      199.42176      199.63711      215.90446    
      9600  -27381.929      153.51882     -27228.41       199.40555      199.62829      216.00752    
      9700  -27377.784      153.63163     -27224.152      199.39423      199.61944      216.11058    
      9800  -27377.749      154.22234     -27223.526      199.3792       199.60181      216.21363    
      9900  -27373.554      149.90136     -27223.653      199.3638       199.59115      216.31669    
     10000  -27368.625      148.25752     -27220.368      199.34979      199.58221      216.41975    
     10100  -27364.034      150.66542     -27213.369      199.3338       199.56489      216.52281    
     10200  -27359.269      152.74906     -27206.52       199.31931      199.55319      216.62586    
     10300  -27357.752      154.1518      -27203.6        199.30351      199.54277      216.72892    
     10400  -27353.351      151.92467     -27201.426      199.28471      199.52674      216.83198    
     10500  -27350.993      151.1139      -27199.879      199.27114      199.51275      216.93503    
     10600  -27349.668      151.66393     -27198.004      199.25496      199.49929      217.03809    
     10700  -27345.855      150.98062     -27194.874      199.23326      199.48566      217.14115    
     10800  -27339.745      149.6387      -27190.106      199.21823      199.47123      217.2442     
     10900  -27333.769      150.21851     -27183.55       199.20307      199.45417      217.34726    
     11000  -27334.131      157.24537     -27176.886      199.18149      199.43897      217.45032    
     11100  -27329.152      155.37003     -27173.782      199.16208      199.42585      217.55338    
     11200  -27326.812      151.94025     -27174.871      199.14484      199.40841      217.65643    
     11300  -27320.383      148.05539     -27172.327      199.12429      199.39088      217.75949    
     11400  -27319.509      153.07975     -27166.429      199.10367      199.37648      217.86255    
     11500  -27313.875      154.20926     -27159.666      199.08433      199.3585       217.9656     
     11600  -27309.42       154.29533     -27155.125      199.06328      199.33888      218.06866    
     11700  -27307.056      151.94903     -27155.107      199.04188      199.32317      218.17172    
     11800  -27307.268      152.22559     -27155.042      199.01927      199.30588      218.27477    
     11900  -27299.481      150.07249     -27149.409      198.99787      199.28546      218.37783    
     12000  -27293.891      151.77699     -27142.114      198.97674      199.26716      218.48089    
     12100  -27287.835      151.17217     -27136.663      198.95235      199.24759      218.58395    
     12200  -27284.742      151.163       -27133.579      198.92931      199.22711      218.687      
     12300  -27280.31       146.34598     -27133.964      198.90648      199.20869      218.79006    
     12400  -27281.378      149.83916     -27131.539      198.88023      199.1871       218.89312    
     12500  -27274.343      150.91506     -27123.428      198.85697      199.16512      218.99617    
     12600  -27269.693      151.97725     -27117.715      198.83259      199.14361      219.09923    
     12700  -27265.607      151.03633     -27114.571      198.80299      199.12233      219.20229    
     12800  -27262.817      151.21104     -27111.606      198.77906      199.09978      219.30535    
     12900  -27256.217      150.66979     -27105.547      198.75457      199.07445      219.4084     
     13000  -27253.684      156.97945     -27096.705      198.7226       199.05211      219.51146    
     13100  -27248.082      154.3067      -27093.775      198.69529      199.03025      219.61452    
     13200  -27246.396      153.1064      -27093.289      198.66975      199.00159      219.71757    
     13300  -27241.84       151.33117     -27090.509      198.63651      198.9766       219.82063    
     13400  -27237.376      151.26986     -27086.106      198.6059       198.95455      219.92369    
     13500  -27231.922      152.95943     -27078.963      198.57703      198.92361      220.02674    
     13600  -27226.59       155.95155     -27070.639      198.54501      198.89531      220.1298     
     13700  -27221.08       153.09732     -27067.983      198.51063      198.87286      220.23286    
     13800  -27223.161      153.53765     -27069.623      198.47701      198.84104      220.33592    
     13900  -27215.387      150.41309     -27064.974      198.44517      198.80814      220.43897    
     14000  -27210.483      151.38454     -27059.098      198.40924      198.78327      220.54203    
     14100  -27208.646      155.35081     -27053.296      198.37026      198.75142      220.64509    
     14200  -27202.008      150.63454     -27051.374      198.33674      198.71653      220.74814    
     14300  -27199.661      148.91645     -27050.744      198.29835      198.68826      220.8512     
     14400  -27194.906      150.10059     -27044.805      198.25757      198.65476      220.95426    
     14500  -27187.223      150.38515     -27036.838      198.22223      198.6179       221.05731    
     14600  -27183.436      151.0345      -27032.402      198.18187      198.58548      221.16037    
     14700  -27181.142      150.93544     -27030.206      198.13727      198.55053      221.26343    
     14800  -27177.027      149.08791     -27027.939      198.09845      198.51177      221.36649    
     14900  -27171.098      150.65388     -27020.444      198.05634      198.47557      221.46954    
     15000  -27164.017      152.35005     -27011.667      198.00883      198.43806      221.5726     
     15100  -27162.62       154.39428     -27008.226      197.96566      198.39848      221.67566    
     15200  -27158.461      151.64263     -27006.818      197.92098      198.35907      221.77871    
     15300  -27154.283      151.05792     -27003.225      197.87246      198.31651      221.88177    
     15400  -27144.868      150.36628     -26994.501      197.82584      198.27564      221.98483    
     15500  -27142.404      155.0555      -26987.348      197.7764       198.23405      222.08788    
     15600  -27141.762      156.24168     -26985.52       197.72531      198.18704      222.19094    
     15700  -27133.828      149.33211     -26984.496      197.67629      198.1424       222.294      
     15800  -27127.402      147.40942     -26979.992      197.62105      198.09983      222.39706    
     15900  -27122.283      151.34899     -26970.934      197.56654      198.05085      222.50011    
     16000  -27118.771      153.73559     -26965.035      197.51613      198.00049      222.60317    
     16100  -27117.565      154.24397     -26963.321      197.45605      197.95428      222.70623    
     16200  -27110.461      148.52632     -26961.935      197.39612      197.9054       222.80928    
     16300  -27102.631      146.01698     -26956.615      197.34286      197.85154      222.91234    
     16400  -27099.417      151.36904     -26948.048      197.2816       197.79947      223.0154     
     16500  -27097.655      155.69426     -26941.961      197.21696      197.74927      223.11845    
     16600  -27094.11       154.40146     -26939.708      197.15883      197.69288      223.22151    
     16700  -27090.49       152.39541     -26938.095      197.09443      197.63687      223.32457    
     16800  -27083.832      150.85735     -26932.975      197.02821      197.58327      223.42763    
     16900  -27075.742      151.1869      -26924.555      196.96559      197.52482      223.53068    
     17000  -27073.202      154.65675     -26918.545      196.89853      197.46514      223.63374    
     17100  -27071.253      155.0304      -26916.223      196.82884      197.40815      223.7368     
     17200  -27063.917      149.39249     -26914.524      196.76123      197.34761      223.83985    
     17300  -27055.149      146.64698     -26908.502      196.69252      197.28499      223.94291    
     17400  -27051.943      151.30799     -26900.635      196.62013      197.22453      224.04597    
     17500  -27046.352      151.60738     -26894.744      196.54907      197.16146      224.14903    
     17600  -27044.569      152.96601     -26891.603      196.47722      197.0967       224.25208    
     17700  -27040.528      150.67008     -26889.858      196.4031       197.03319      224.35514    
     17800  -27033.664      149.85036     -26883.814      196.33017      196.96689      224.4582     
     17900  -27029.81       153.64218     -26876.168      196.25426      196.90164      224.56125    
     18000  -27023.186      153.34788     -26869.838      196.1778       196.83567      224.66431    
     18100  -27017.797      151.50162     -26866.295      196.10263      196.76602      224.76737    
     18200  -27015.16       150.87857     -26864.281      196.0236       196.70019      224.87042    
     18300  -27004.65       145.64998     -26859          195.94416      196.63389      224.97348    
     18400  -27001.503      153.04185     -26848.462      195.86845      196.56127      225.07654    
     18500  -26995.102      152.89273     -26842.209      195.78945      196.49199      225.1796     
     18600  -26990.699      152.48837     -26838.211      195.70757      196.4266       225.28265    
     18700  -26986.142      148.7261      -26837.415      195.62928      196.35349      225.38571    
     18800  -26984.46       150.76519     -26833.694      195.55217      196.28119      225.48877    
     18900  -26977.504      151.18382     -26826.32       195.46976      196.21576      225.59182    
     19000  -26969.375      151.17852     -26818.197      195.38825      196.14493      225.69488    
     19100  -26965.795      153.41007     -26812.385      195.31172      196.07223      225.79794    
     19200  -26961          151.64962     -26809.351      195.23191      196.00299      225.90099    
     19300  -26959.962      152.9674      -26806.994      195.14928      195.93295      226.00405    
     19400  -26949.942      148.29519     -26801.647      195.07162      195.86451      226.10711    
     19500  -26944.342      150.29895     -26794.043      194.99334      195.79418      226.21017    
     19600  -26941.038      154.12935     -26786.909      194.91468      195.7228       226.31322    
     19700  -26936.32       154.22669     -26782.093      194.83799      195.656        226.41628    
     19800  -26930.294      150.12002     -26780.174      194.75791      195.58892      226.51934    
     19900  -26927.03       147.81891     -26779.211      194.68205      195.51908      226.62239    
     20000  -26920.836      149.23667     -26771.599      194.60946      195.45119      226.72545    
     20100  -26918.398      155.10528     -26763.293      194.52968      195.38638      226.82851    
     20200  -26908          152.95651     -26755.043      194.45447      195.32047      226.93156    
     20300  -26901.692      153.33575     -26748.356      194.38425      195.25355      227.03462    
     20400  -26896.013      151.90289     -26744.11       194.30869      195.18967      227.13768    
     20500  -26891.645      151.42835     -26740.216      194.23636      195.1264       227.24074    
     20600  -26882.377      150.04427     -26732.333      194.16602      195.06337      227.34379    
     20700  -26877.212      153.8689      -26723.343      194.09457      195.00146      227.44685    
     20800  -26874.972      154.59454     -26720.378      194.02678      194.93971      227.54991    
     20900  -26868.067      149.93019     -26718.136      193.95875      194.88035      227.65296    
     21000  -26860.536      148.24332     -26712.292      193.88965      194.82206      227.75602    
     21100  -26853.688      150.07025     -26703.618      193.82561      194.76369      227.85908    
     21200  -26851.445      155.04005     -26696.405      193.7616       194.70539      227.96213    
     21300  -26847.762      155.00061     -26692.762      193.69572      194.65011      228.06519    
     21400  -26841.79       152.09344     -26689.696      193.63497      194.59508      228.16825    
     21500  -26836.262      151.4393      -26684.823      193.57412      194.54107      228.27131    
     21600  -26828.509      151.5302      -26676.979      193.51285      194.48839      228.37436    
     21700  -26819.903      151.93645     -26667.967      193.45586      194.43673      228.47742    
     21800  -26818.218      154.86588     -26663.352      193.39942      194.38528      228.58048    
     21900  -26814.838      154.48761     -26660.35       193.34132      194.33582      228.68353    
     22000  -26806.99       150.98354     -26656.007      193.28883      194.28725      228.78659    
     22100  -26800.796      150.67113     -26650.125      193.23635      194.2372       228.88965    
     22200  -26792.992      151.73072     -26641.261      193.18178      194.19277      228.99271    
     22300  -26786.702      154.18491     -26632.517      193.1303       194.14868      229.09576    
     22400  -26781.694      152.85376     -26628.841      193.0818       194.10036      229.19882    
     22500  -26778.45       152.79807     -26625.652      193.03283      194.05763      229.30188    
     22600  -26771.876      150.23373     -26621.643      192.98183      194.01823      229.40493    
     22700  -26766.921      151.13997     -26615.781      192.93698      193.9735       229.50799    
     22800  -26759.391      152.76768     -26606.623      192.89287      193.93214      229.61105    
     22900  -26758.259      159.52365     -26598.735      192.8457       193.89412      229.7141     
     23000  -26751.183      152.91012     -26598.273      192.80282      193.85342      229.81716    
     23100  -26745.042      150.88929     -26594.153      192.75959      193.81593      229.92022    
     23200  -26735.846      149.0941      -26586.752      192.71545      193.78041      230.02328    
     23300  -26731.921      154.01396     -26577.907      192.67703      193.74114      230.12633    
     23400  -26725.758      153.79537     -26571.963      192.63758      193.70539      230.22939    
     23500  -26724.136      152.93449     -26571.201      192.59628      193.67186      230.33245    
     23600  -26714.894      148.1798      -26566.714      192.55903      193.63725      230.4355     
     23700  -26708.158      149.36999     -26558.788      192.52098      193.60424      230.53856    
     23800  -26702.569      152.06546     -26550.503      192.48457      193.57114      230.64162    
     23900  -26696.285      151.86626     -26544.418      192.45073      193.53766      230.74467    
     24000  -26691.044      149.43396     -26541.61       192.41441      193.50616      230.84773    
     24100  -26688.153      147.66905     -26540.484      192.37871      193.47739      230.95079    
     24200  -26683.577      150.9639      -26532.613      192.34512      193.44743      231.05385    
     24300  -26676.694      153.8838      -26522.81       192.31277      193.41701      231.1569     
     24400  -26668.476      153.35884     -26515.118      192.28215      193.38676      231.25996    
     24500  -26661.793      152.63576     -26509.158      192.25067      193.35772      231.36302    
     24600  -26658.045      151.44902     -26506.596      192.21682      193.33201      231.46607    
     24700  -26654.388      150.10418     -26504.284      192.18577      193.3048       231.56913    
     24800  -26647.14       150.86506     -26496.275      192.15713      193.27647      231.67219    
     24900  -26641.226      153.5528      -26487.673      192.12825      193.24918      231.77524    
     25000  -26630.244      150.71621     -26479.527      192.09815      193.22246      231.8783     
     25100  -26622.762      150.94552     -26471.817      192.06951      193.19767      231.98136    
     25200  -26619.464      153.29789     -26466.166      192.04055      193.17243      232.08442    
     25300  -26618.832      152.99557     -26465.837      192.01181      193.14721      232.18747    
     25400  -26612.972      152.00602     -26460.966      191.98389      193.12405      232.29053    
     25500  -26603.518      151.7436      -26451.774      191.95691      193.09854      232.39359    
     25600  -26595.551      152.78        -26442.771      191.93139      193.07346      232.49664    
     25700  -26588.297      152.20407     -26436.093      191.9053       193.04962      232.5997     
     25800  -26583.826      152.32487     -26431.501      191.87778      193.02671      232.70276    
     25900  -26579.137      150.10955     -26429.027      191.85081      193.00552      232.80582    
     26000  -26576.227      148.87942     -26427.347      191.82544      192.98174      232.90887    
     26100  -26570.109      148.33451     -26421.774      191.80175      192.95765      233.01193    
     26200  -26560.225      151.43804     -26408.786      191.77781      192.93453      233.11499    
     26300  -26552.929      153.495       -26399.434      191.7533       192.91266      233.21804    
     26400  -26545.51       153.04692     -26392.463      191.72713      192.89211      233.3211     
     26500  -26540.579      151.93544     -26388.643      191.70142      192.8708       233.42416    
     26600  -26535.101      149.90334     -26385.198      191.67901      192.84973      233.52721    
     26700  -26530.271      152.35339     -26377.918      191.65558      192.82633      233.63027    
     26800  -26520.761      154.39739     -26366.363      191.63273      192.80313      233.73333    
     26900  -26512.546      152.50601     -26360.04       191.60998      192.78257      233.83639    
     27000  -26508.95       152.83776     -26356.112      191.58378      192.76267      233.93944    
     27100  -26503.629      152.76724     -26350.862      191.55923      192.74333      234.0425     
     27200  -26495.88       153.02645     -26342.853      191.53795      192.7212       234.14556    
     27300  -26488.301      156.97059     -26331.331      191.51533      192.6981       234.24861    
     27400  -26479.62       152.90343     -26326.716      191.49294      192.67803      234.35167    
     27500  -26476.328      152.23624     -26324.092      191.4699       192.65776      234.45473    
     27600  -26469.891      151.12518     -26318.765      191.44468      192.63786      234.55778    
     27700  -26464.586      152.95583     -26311.63       191.42144      192.61937      234.66084    
     27800  -26456.74       152.93826     -26303.801      191.39962      192.59701      234.7639     
     27900  -26451.62       153.68366     -26297.936      191.3767       192.57639      234.86696    
     28000  -26449.48       153.77151     -26295.709      191.35574      192.55621      234.97001    
     28100  -26440.84       149.80421     -26291.036      191.33385      192.53408      235.07307    
     28200  -26432.831      150.30688     -26282.524      191.30956      192.51575      235.17613    
     28300  -26424.697      152.48637     -26272.21       191.28638      192.49767      235.27918    
     28400  -26418.962      153.51116     -26265.451      191.26418      192.47676      235.38224    
     28500  -26414.096      153.89761     -26260.198      191.24334      192.45493      235.4853     
     28600  -26405.841      150.58583     -26255.255      191.2235       192.43283      235.58835    
     28700  -26399.661      149.92392     -26249.737      191.20155      192.412        235.69141    
     28800  -26396.961      154.33331     -26242.627      191.17767      192.3936       235.79447    
     28900  -26386.374      153.61366     -26232.76       191.1539       192.37608      235.89753    
     29000  -26379.462      154.42685     -26225.035      191.13167      192.35445      236.00058    
     29100  -26371.417      148.66905     -26222.748      191.11044      192.33367      236.10364    
     29200  -26368.693      150.07035     -26218.622      191.08965      192.31299      236.2067     
     29300  -26363.71       152.51845     -26211.192      191.06735      192.28938      236.30975    
     29400  -26355.418      151.60836     -26203.81       191.04426      192.27083      236.41281    
     29500  -26350.058      153.20874     -26196.85       191.02076      192.2529       236.51587    
     29600  -26343.202      153.88973     -26189.312      190.99694      192.23139      236.61892    
     29700  -26333.277      153.16402     -26180.113      190.97573      192.21194      236.72198    
     29800  -26328.906      155.92897     -26172.977      190.95368      192.18995      236.82504    
     29900  -26324.839      153.64252     -26171.196      190.93278      192.16657      236.9281     
     30000  -26314.541      147.74341     -26166.797      190.91067      192.14762      237.03115    
     30100  -26308.811      149.48878     -26159.322      190.88606      192.12713      237.13421    
     30200  -26302.495      153.10365     -26149.392      190.86298      192.10752      237.23727    
     30300  -26293.499      152.55726     -26140.942      190.84033      192.08748      237.34032    
     30400  -26286.959      151.33764     -26135.622      190.81695      192.06579      237.44338    
     30500  -26280.86       150.44854     -26130.412      190.79813      192.04187      237.54644    
     30600  -26277.706      152.8028      -26124.904      190.777        192.01923      237.6495     
     30700  -26268.929      151.30614     -26117.623      190.75208      191.99944      237.75255    
     30800  -26262.319      155.12478     -26107.194      190.72838      191.97942      237.85561    
     30900  -26253.125      154.37689     -26098.748      190.7041       191.96033      237.95867    
     31000  -26248.405      151.63751     -26096.768      190.68067      191.93813      238.06172    
     31100  -26244.584      151.83816     -26092.745      190.66019      191.91435      238.16478    
     31200  -26237.068      151.0236      -26086.045      190.63809      191.89145      238.26784    
     31300  -26226.876      149.6039      -26077.272      190.61318      191.87031      238.37089    
     31400  -26221.89       154.24673     -26067.643      190.59043      191.84914      238.47395    
     31500  -26215.28       153.75147     -26061.529      190.56537      191.82702      238.57701    
     31600  -26210.839      150.15187     -26060.688      190.54002      191.8065       238.68007    
     31700  -26205.076      151.31659     -26053.759      190.51811      191.78425      238.78312    
     31800  -26195.511      151.85504     -26043.656      190.49522      191.75813      238.88618    
     31900  -26190.502      155.01062     -26035.492      190.47192      191.73619      238.98924    
     32000  -26184.567      153.79127     -26030.776      190.44793      191.7142       239.09229    
     32100  -26178.813      151.47268     -26027.34       190.42185      191.69122      239.19535    
     32200  -26169.91       149.81258     -26020.098      190.39642      191.6722       239.29841    
     32300  -26162.783      151.98719     -26010.796      190.37258      191.64813      239.40146    
     32400  -26152.725      150.89057     -26001.834      190.34891      191.62373      239.50452    
     32500  -26149.843      153.60105     -25996.242      190.32533      191.6015       239.60758    
     32600  -26145.647      150.86241     -25994.784      190.30186      191.57535      239.71064    
     32700  -26137.393      148.96175     -25988.431      190.27668      191.55301      239.81369    
     32800  -26130.702      151.61989     -25979.082      190.24988      191.5335       239.91675    
     32900  -26124.022      154.2071      -25969.814      190.22359      191.50905      240.01981    
     33000  -26115.473      152.6586      -25962.815      190.19958      191.48484      240.12286    
     33100  -26110.845      153.93335     -25956.912      190.17646      191.46042      240.22592    
     33200  -26104.09       152.69645     -25951.394      190.15276      191.43225      240.32898    
     33300  -26093.227      149.839       -25943.388      190.12684      191.40962      240.43203    
     33400  -26086.362      154.70515     -25931.657      190.09836      191.3891       240.53509    
     33500  -26080.729      154.51339     -25926.216      190.07108      191.36384      240.63815    
     33600  -26075.134      151.33359     -25923.801      190.04643      191.33944      240.74121    
     33700  -26068.886      151.23292     -25917.653      190.02011      191.31496      240.84426    
     33800  -26059.201      150.60325     -25908.598      189.99564      191.28624      240.94732    
     33900  -26053.011      154.90024     -25898.111      189.96964      191.26237      241.05038    
     34000  -26046.903      155.85831     -25891.045      189.94171      191.23878      241.15343    
     34100  -26042.518      151.94563     -25890.572      189.91553      191.21095      241.25649    
     34200  -26031.848      147.86157     -25883.986      189.88836      191.18857      241.35955    
     34300  -26025.383      151.84308     -25873.54       189.85864      191.16434      241.46261    
     34400  -26019.169      155.02029     -25864.149      189.83416      191.13514      241.56566    
     34500  -26011.637      153.55974     -25858.078      189.80953      191.10997      241.66872    
     34600  -26005.416      149.67994     -25855.736      189.78112      191.08204      241.77178    
     34700  -25997.7        146.54128     -25851.159      189.75542      191.05534      241.87483    
     34800  -25989.589      147.32187     -25842.267      189.72583      191.03273      241.97789    
     34900  -25985.168      152.84728     -25832.321      189.69489      191.00648      242.08095    
     35000  -25978.79       155.24115     -25823.549      189.67066      190.97833      242.184      
     35100  -25970.188      153.61483     -25816.573      189.64331      190.95175      242.28706    
     35200  -25967.158      151.93942     -25815.219      189.61466      190.92284      242.39012    
     35300  -25958.059      148.60057     -25809.458      189.59045      190.89397      242.49318    
     35400  -25949.013      149.7639      -25799.249      189.55946      190.86861      242.59623    
     35500  -25940.944      151.7906      -25789.154      189.52811      190.84275      242.69929    
     35600  -25933.365      151.52942     -25781.836      189.50095      190.81449      242.80235    
     35700  -25930.999      154.13385     -25776.866      189.4696       190.78793      242.9054     
     35800  -25924.244      151.81374     -25772.43       189.44147      190.75822      243.00846    
     35900  -25918.042      152.15776     -25765.884      189.41647      190.72756      243.11152    
     36000  -25907.879      154.07511     -25753.804      189.3845       190.69993      243.21457    
     36100  -25897.894      154.35603     -25743.538      189.35454      190.67261      243.31763    
     36200  -25893.468      154.71458     -25738.753      189.32751      190.64259      243.42069    
     36300  -25886.831      151.03033     -25735.801      189.29323      190.61524      243.52375    
     36400  -25880.819      150.34131     -25730.478      189.26384      190.58721      243.6268     
     36500  -25875.149      152.3739      -25722.775      189.23626      190.55637      243.72986    
     36600  -25862.762      152.42097     -25710.341      189.20374      190.52754      243.83292    
     36700  -25855.84       154.08        -25701.76       189.17645      190.49638      243.93597    
     36800  -25849.666      152.95663     -25696.709      189.14865      190.46454      244.03903    
     36900  -25845.078      152.20269     -25692.876      189.11283      190.43772      244.14209    
     37000  -25839.417      152.7718      -25686.645      189.08289      190.40917      244.24514    
     37100  -25829.87       151.86929     -25678.001      189.05209      190.37846      244.3482     
     37200  -25823.149      155.14981     -25667.999      189.01806      190.34895      244.45126    
     37300  -25813.273      154.30809     -25658.965      188.99171      190.31722      244.55432    
     37400  -25807.471      152.21742     -25655.253      188.96032      190.28287      244.65737    
     37500  -25803.243      151.18346     -25652.06       188.92671      190.255        244.76043    
     37600  -25792.294      148.28638     -25644.007      188.89628      190.22398      244.86349    
     37700  -25785.66       153.09391     -25632.566      188.86233      190.19113      244.96654    
     37800  -25778.37       153.96888     -25624.402      188.82882      190.16456      245.0696     
     37900  -25773.307      152.83509     -25620.472      188.79745      190.13026      245.17266    
     38000  -25766.364      150.79973     -25615.564      188.76574      190.09722      245.27571    
     38100  -25757.775      150.36551     -25607.41       188.73167      190.06851      245.37877    
     38200  -25752.501      154.14358     -25598.358      188.70043      190.03285      245.48183    
     38300  -25740.343      150.23632     -25590.106      188.66889      189.99998      245.58489    
     38400  -25736.309      153.10259     -25583.206      188.63375      189.97045      245.68794    
     38500  -25728.806      149.49275     -25579.313      188.60165      189.93734      245.791      
     38600  -25725.646      152.18265     -25573.463      188.5662       189.90488      245.89406    
     38700  -25716.037      152.75611     -25563.281      188.53141      189.87614      245.99711    
     38800  -25705.601      153.41713     -25552.184      188.50007      189.83927      246.10017    
     38900  -25695.969      150.41539     -25545.554      188.46859      189.80482      246.20323    
     39000  -25688.955      148.68997     -25540.265      188.43447      189.77297      246.30629    
     39100  -25686.085      151.64219     -25534.442      188.40037      189.73696      246.40934    
     39200  -25679.726      153.00252     -25526.724      188.36596      189.7076       246.5124     
     39300  -25671.386      152.71029     -25518.675      188.32802      189.6748       246.61546    
     39400  -25662.612      152.00746     -25510.605      188.29644      189.63907      246.71851    
     39500  -25656.244      153.28425     -25502.96       188.2608       189.6064       246.82157    
     39600  -25649.282      151.20189     -25498.08       188.224        189.57269      246.92463    
     39700  -25643.536      150.05696     -25493.479      188.19348      189.53599      247.02768    
     39800  -25637.943      153.13708     -25484.806      188.15717      189.50063      247.13074    
     39900  -25624.785      151.60356     -25473.181      188.12131      189.46861      247.2338     
     40000  -25619.596      155.19827     -25464.397      188.0865       189.43262      247.33686    
     40100  -25611.117      152.30263     -25458.814      188.04889      189.39929      247.43991    
     40200  -25600.069      147.59576     -25452.474      188.01218      189.36698      247.54297    
     40300  -25597.351      151.82232     -25445.529      187.97749      189.32946      247.64603    
     40400  -25591.017      152.33689     -25438.68       187.94261      189.29504      247.74908    
     40500  -25581.667      149.29716     -25432.37       187.90728      189.25829      247.85214    
     40600  -25573.753      147.78445     -25425.968      187.87394      189.22154      247.9552     
     40700  -25569.98       153.70639     -25416.273      187.83571      189.18718      248.05825    
     40800  -25558.732      153.08788     -25405.644      187.79771      189.15426      248.16131    
     40900  -25553.006      153.79928     -25399.207      187.76226      189.11836      248.26437    
     41000  -25547.629      151.10368     -25396.525      187.72479      189.08281      248.36743    
     41100  -25540.703      151.48923     -25389.213      187.68955      189.04777      248.47048    
     41200  -25529.79       150.18561     -25379.604      187.65506      189.00847      248.57354    
     41300  -25522.863      152.8909      -25369.972      187.61836      188.97305      248.6766     
     41400  -25515.566      153.40298     -25362.163      187.58192      188.93698      248.77965    
     41500  -25507.941      148.50358     -25359.437      187.54559      188.8994       248.88271    
     41600  -25503.884      148.97753     -25354.906      187.5063       188.86626      248.98577    
     41700  -25494.505      149.70587     -25344.799      187.46778      188.83089      249.08882    
     41800  -25487.747      154.44102     -25333.306      187.43163      188.79435      249.19188    
     41900  -25476.793      152.49238     -25324.3        187.39386      188.75729      249.29494    
     42000  -25474.042      155.76181     -25318.28       187.3582       188.71994      249.398      
     42100  -25465.183      150.78978     -25314.394      187.32228      188.68134      249.50105    
     42200  -25455.347      148.06543     -25307.282      187.28386      188.64565      249.60411    
     42300  -25450.475      152.08584     -25298.39       187.2467       188.60927      249.70717    
     42400  -25440.324      151.84402     -25288.48       187.20802      188.57354      249.81022    
     42500  -25433.615      154.15152     -25279.463      187.16891      188.53912      249.91328    
     42600  -25424.617      152.8315      -25271.786      187.13267      188.50043      250.01634    
     42700  -25420.311      153.23145     -25267.079      187.09692      188.46268      250.11939    
     42800  -25412.604      149.94543     -25262.658      187.05993      188.42581      250.22245    
     42900  -25405.643      150.47089     -25255.172      187.02366      188.38662      250.32551    
     43000  -25395.59       151.98198     -25243.608      186.98656      188.35107      250.42857    
     43100  -25387.262      154.70845     -25232.554      186.94719      188.31484      250.53162    
     43200  -25382.179      156.1122      -25226.067      186.91029      188.27799      250.63468    
     43300  -25372.015      151.37833     -25220.637      186.87128      188.24278      250.73774    
     43400  -25365.792      151.35133     -25214.441      186.83242      188.20648      250.84079    
     43500  -25360.404      151.86164     -25208.543      186.79682      188.16725      250.94385    
     43600  -25354.961      151.11426     -25203.847      186.76106      188.12973      251.04691    
     43700  -25351.12       150.36898     -25200.751      186.72296      188.09254      251.14997    
     43800  -25338.806      148.95191     -25189.854      186.68661      188.0541       251.25302    
     43900  -25330.27       151.61608     -25178.654      186.64852      188.01836      251.35608    
     44000  -25321.278      152.40399     -25168.874      186.60787      187.98353      251.45914    
     44100  -25311.979      151.62044     -25160.358      186.57101      187.94648      251.56219    
     44200  -25305.737      152.02838     -25153.709      186.5331       187.91105      251.66525    
     44300  -25301.723      152.48908     -25149.234      186.4955       187.87315      251.76831    
     44400  -25290.849      147.29503     -25143.554      186.46169      187.83337      251.87136    
     44500  -25286.261      151.5272      -25134.734      186.42485      187.79689      251.97442    
     44600  -25272.856      152.08523     -25120.771      186.38615      187.76018      252.07748    
     44700  -25265.841      154.34016     -25111.501      186.35184      187.72386      252.18054    
     44800  -25258.714      152.87508     -25105.839      186.31151      187.68895      252.28359    
     44900  -25251.798      150.02766     -25101.77       186.27412      187.65296      252.38665    
     45000  -25244.613      149.97081     -25094.642      186.23956      187.61637      252.48971    
     45100  -25236.373      150.76528     -25085.608      186.20069      187.58007      252.59276    
     45200  -25227.847      153.4019      -25074.445      186.1662       187.54277      252.69582    
     45300  -25218.448      157.10086     -25061.347      186.13111      187.50482      252.79888    
     45400  -25210.984      155.28699     -25055.697      186.09271      187.47091      252.90193    
     45500  -25203.884      152.87152     -25051.013      186.05698      187.43372      253.00499    
     45600  -25194.919      148.92679     -25045.993      186.02124      187.3971       253.10805    
     45700  -25190.25       149.76382     -25040.486      185.98151      187.36451      253.21111    
     45800  -25182.731      149.35384     -25033.377      185.94564      187.32778      253.31416    
     45900  -25175.378      151.83229     -25023.546      185.91008      187.29329      253.41722    
     46000  -25165.33       153.81768     -25011.512      185.8712       187.25756      253.52028    
     46100  -25157.824      154.01252     -25003.811      185.83984      187.21966      253.62333    
     46200  -25152.552      151.86471     -25000.687      185.80528      187.18259      253.72639    
     46300  -25145.559      152.45205     -24993.107      185.76697      187.14917      253.82945    
     46400  -25138.48       154.44337     -24984.036      185.73349      187.11403      253.9325     
     46500  -25126.016      149.70721     -24976.309      185.6959       187.07967      254.03556    
     46600  -25121.219      150.51691     -24970.702      185.65877      187.04759      254.13862    
     46700  -25113.259      147.96833     -24965.291      185.62591      187.01098      254.24168    
     46800  -25106.395      151.64457     -24954.75       185.59087      186.97532      254.34473    
     46900  -25095.864      153.60759     -24942.256      185.55702      186.94199      254.44779    
     47000  -25087.893      153.86587     -24934.028      185.52369      186.90443      254.55085    
     47100  -25079.508      151.17305     -24928.335      185.48843      186.87176      254.6539     
     47200  -25076.167      153.80972     -24922.357      185.45341      186.83849      254.75696    
     47300  -25065.496      150.50452     -24914.991      185.42064      186.80282      254.86002    
     47400  -25060.907      154.21048     -24906.696      185.38391      186.77163      254.96308    
     47500  -25050.462      152.21285     -24898.249      185.34913      186.73847      255.06613    
     47600  -25041.776      151.17126     -24890.604      185.31636      186.70437      255.16919    
     47700  -25036.175      148.8685      -24887.307      185.28069      186.67139      255.27225    
     47800  -25029.596      148.43444     -24881.161      185.24948      186.63752      255.3753     
     47900  -25022.649      153.03206     -24869.617      185.21748      186.60085      255.47836    
     48000  -25007.338      149.21382     -24858.125      185.18347      186.57021      255.58142    
     48100  -25002.713      153.0402      -24849.673      185.15018      186.53742      255.68447    
     48200  -24997.183      153.74338     -24843.44       185.11597      186.50499      255.78753    
     48300  -24989.867      150.61814     -24839.249      185.08117      186.47632      255.89059    
     48400  -24981.776      146.82188     -24834.954      185.04943      186.44217      255.99365    
     48500  -24974.571      149.91066     -24824.66       185.0171       186.40951      256.0967     
     48600  -24960.384      150.32082     -24810.063      184.98562      186.37922      256.19976    
     48700  -24953.745      153.04314     -24800.702      184.95489      186.34429      256.30282    
     48800  -24947.948      153.24893     -24794.699      184.92297      186.31249      256.40587    
     48900  -24941.194      151.55679     -24789.637      184.89166      186.28299      256.50893    
     49000  -24932.325      150.52716     -24781.798      184.85999      186.24873      256.61199    
     49100  -24924.69       152.83508     -24771.854      184.82816      186.21965      256.71504    
     49200  -24914.989      154.7031      -24760.286      184.79539      186.19066      256.8181     
     49300  -24906.628      154.64625     -24751.982      184.76469      186.1585       256.92116    
     49400  -24896.715      148.36607     -24748.349      184.73265      186.13004      257.02422    
     49500  -24892.406      151.21457     -24741.191      184.70256      186.09931      257.12727    
     49600  -24885.653      153.09022     -24732.562      184.67352      186.0644       257.23033    
     49700  -24876.607      151.4571      -24725.15       184.64391      186.03611      257.33339    
     49800  -24869.684      148.92531     -24720.759      184.61271      186.0061       257.43644    
     49900  -24861.839      148.54945     -24713.289      184.58199      185.97513      257.5395     
     50000  -24850.284      150.14845     -24700.136      184.55157      185.9491       257.64256    
     50100  -24844.105      154.07037     -24690.034      184.52071      185.91822      257.74561    
     50200  -24836.452      153.67472     -24682.777      184.49193      185.88813      257.84867    
     50300  -24830.502      152.98854     -24677.513      184.46159      185.8613       257.95173    
     50400  -24820.781      150.67047     -24670.111      184.43257      185.83102      258.05479    
     50500  -24812.297      151.80092     -24660.496      184.40505      185.80041      258.15784    
     50600  -24804.71       153.77496     -24650.935      184.37546      185.77407      258.2609     
     50700  -24794.193      151.19732     -24642.995      184.34825      185.74352      258.36396    
     50800  -24789.745      153.5474      -24636.197      184.32014      185.71338      258.46701    
     50900  -24783.335      153.12765     -24630.208      184.29042      185.69         258.57007    
     51000  -24773.973      151.1998      -24622.773      184.26071      185.65963      258.67313    
     51100  -24763.279      150.13974     -24613.139      184.23294      185.63337      258.77618    
     51200  -24755.275      153.38139     -24601.894      184.20485      185.60652      258.87924    
     51300  -24746.275      153.89818     -24592.377      184.17873      185.57477      258.9823     
     51400  -24740.362      153.57391     -24586.788      184.1525       185.54872      259.08536    
     51500  -24732.029      150.70762     -24581.322      184.12353      185.52239      259.18841    
     51600  -24722.886      150.45578     -24572.43       184.09634      185.49329      259.29147    
     51700  -24713.683      151.73703     -24561.946      184.06837      185.46877      259.39453    
     51800  -24699.432      151.60178     -24547.83       184.04028      185.44297      259.49758    
     51900  -24694.082      155.53319     -24538.549      184.01375      185.41354      259.60064    
     52000  -24689.283      154.90309     -24534.38       183.9881       185.38934      259.7037     
     52100  -24683.042      154.26816     -24528.774      183.96029      185.36219      259.80676    
     52200  -24673.833      150.89993     -24522.933      183.93436      185.33469      259.90981    
     52300  -24666.324      150.85531     -24515.469      183.90834      185.31091      260.01287    
     52400  -24655.28       149.63541     -24505.644      183.88276      185.28325      260.11593    
     52500  -24645.524      153.48002     -24492.044      183.85765      185.255        260.21898    
     52600  -24636.745      154.47134     -24482.273      183.83126      185.23323      260.32204    
     52700  -24630.834      152.89989     -24477.934      183.80401      185.20755      260.4251     
     52800  -24623.166      152.46929     -24470.697      183.7784       185.18119      260.52815    
     52900  -24614.575      151.04647     -24463.528      183.75254      185.15985      260.63121    
     53000  -24606.73       149.73746     -24456.993      183.72796      185.13114      260.73427    
     53100  -24599.792      149.27081     -24450.521      183.70527      185.10444      260.83733    
     53200  -24590.884      148.95753     -24441.927      183.68052      185.08094      260.94038    
     53300  -24581.795      152.65137     -24429.143      183.65528      185.05451      261.04344    
     53400  -24572.396      154.66749     -24417.729      183.62865      185.03154      261.1465     
     53500  -24566.024      154.90112     -24411.123      183.60245      185.01053      261.24955    
     53600  -24557.058      151.07668     -24405.981      183.57855      184.98473      261.35261    
     53700  -24546.181      148.68755     -24397.493      183.55346      184.95902      261.45567    
     53800  -24539.461      151.19747     -24388.264      183.53053      184.93586      261.55872    
     53900  -24533.169      153.50392     -24379.665      183.50684      184.90999      261.66178    
     54000  -24523.983      150.25556     -24373.728      183.48143      184.88623      261.76484    
     54100  -24517.236      150.22022     -24367.016      183.45919      184.86364      261.8679     
     54200  -24507.315      150.34001     -24356.975      183.43489      184.83817      261.97095    
     54300  -24495.497      151.95725     -24343.539      183.41071      184.81537      262.07401    
     54400  -24486.271      153.93021     -24332.341      183.38726      184.79252      262.17707    
     54500  -24480.298      154.98065     -24325.318      183.36344      184.7687       262.28012    
     54600  -24470.785      152.41051     -24318.375      183.33775      184.74737      262.38318    
     54700  -24460.551      149.84143     -24310.71       183.31581      184.72434      262.48624    
     54800  -24456.355      152.81524     -24303.54       183.29444      184.69976      262.58929    
     54900  -24447.161      150.68105     -24296.48       183.27049      184.67465      262.69235    
     55000  -24441.49       150.99979     -24290.49       183.25127      184.65188      262.79541    
     55100  -24432.224      148.3107      -24283.914      183.22647      184.62852      262.89847    
     55200  -24423.342      152.51563     -24270.826      183.2          184.60901      263.00152    
     55300  -24412.036      154.39384     -24257.642      183.17854      184.58638      263.10458    
     55400  -24399.627      150.88089     -24248.746      183.15443      184.56326      263.20764    
     55500  -24396.76       154.38654     -24242.373      183.13077      184.54219      263.31069    
     55600  -24387.172      151.6899      -24235.482      183.11251      184.51593      263.41375    
     55700  -24376.432      150.65676     -24225.776      183.09027      184.49304      263.51681    
     55800  -24367.205      151.38614     -24215.819      183.06538      184.47251      263.61986    
     55900  -24359.011      152.88916     -24206.122      183.04575      184.44952      263.72292    
     56000  -24350.347      153.32746     -24197.02       183.02118      184.42816      263.82598    
     56100  -24341.716      153.28469     -24188.431      182.99887      184.40658      263.92904    
     56200  -24335.634      153.94196     -24181.692      182.97911      184.38348      264.03209    
     56300  -24324.387      150.03127     -24174.355      182.95529      184.36208      264.13515    
     56400  -24317.978      153.4956      -24164.483      182.93341      184.34102      264.23821    
     56500  -24302.043      152.50133     -24149.542      182.91223      184.3191       264.34126    
     56600  -24293.718      155.41405     -24138.304      182.88938      184.29666      264.44432    
     56700  -24285.945      153.1443      -24132.801      182.86972      184.27377      264.54738    
     56800  -24276.951      151.19363     -24125.758      182.84958      184.25174      264.65044    
     56900  -24269.451      151.9693      -24117.481      182.82648      184.22885      264.75349    
     57000  -24262.245      152.90355     -24109.341      182.80564      184.20886      264.85655    
     57100  -24250.35       147.63762     -24102.713      182.78138      184.18965      264.95961    
     57200  -24244.394      148.07954     -24096.315      182.7585       184.16807      265.06266    
     57300  -24233.035      147.45807     -24085.577      182.73978      184.14537      265.16572    
     57400  -24224.022      154.337       -24069.685      182.71842      184.12387      265.26878    
     57500  -24212.698      154.07044     -24058.627      182.69825      184.10035      265.37183    
     57600  -24202.611      151.14756     -24051.463      182.67863      184.07854      265.47489    
     57700  -24197.582      152.75929     -24044.823      182.65434      184.06037      265.57795    
     57800  -24186.254      150.52491     -24035.729      182.63173      184.03913      265.68101    
     57900  -24178.699      152.97136     -24025.728      182.61202      184.01777      265.78406    
     58000  -24167.609      151.42039     -24016.188      182.58944      183.99864      265.88712    
     58100  -24161.196      152.30019     -24008.896      182.56997      183.97415      265.99018    
     58200  -24155.198      154.45902     -24000.739      182.55183      183.95156      266.09323    
     58300  -24140.044      149.59898     -23990.445      182.5283       183.93337      266.19629    
     58400  -24128.13       152.00322     -23976.127      182.50714      183.91167      266.29935    
     58500  -24118.024      154.56872     -23963.455      182.48635      183.89091      266.4024     
     58600  -24107.023      151.85337     -23955.17       182.46505      183.8723       266.50546    
     58700  -24100.441      152.81431     -23947.626      182.44407      183.84761      266.60852    
     58800  -24091.366      152.15654     -23939.21       182.42504      183.82776      266.71158    
     58900  -24084.87       153.91375     -23930.956      182.40162      183.8089       266.81463    
     59000  -24076.176      153.41876     -23922.758      182.3814       183.78551      266.91769    
     59100  -24066.055      152.18519     -23913.87       182.362        183.76494      267.02075    
     59200  -24054.519      151.36439     -23903.155      182.34023      183.74484      267.1238     
     59300  -24043.067      152.71008     -23890.357      182.32017      183.72183      267.22686    
     59400  -24033.907      155.50519     -23878.402      182.29968      183.70183      267.32992    
     59500  -24024.088      153.95143     -23870.137      182.27784      183.6827       267.43297    
     59600  -24015.211      151.6419      -23863.569      182.25479      183.66216      267.53603    
     59700  -24005.954      151.8725      -23854.082      182.23423      183.64243      267.63909    
     59800  -23995.099      152.52235     -23842.577      182.21585      183.62084      267.74215    
     59900  -23985.642      155.48383     -23830.158      182.19516      183.59668      267.8452     
     60000  -23971.534      155.36986     -23816.165      182.17633      183.57633      267.94826    
     60100  -23962.027      155.39122     -23806.636      182.15604      183.55578      268.05132    
     60200  -23953.257      152.31083     -23800.946      182.13121      183.53712      268.15437    
     60300  -23943.971      151.65857     -23792.312      182.11089      183.51766      268.25743    
     60400  -23934.683      152.04616     -23782.637      182.0903       183.49623      268.36049    
     60500  -23923.583      150.60103     -23772.982      182.06811      183.4762       268.46355    
     60600  -23916.698      152.1818      -23764.517      182.05069      183.45258      268.5666     
     60700  -23906.302      150.20717     -23756.094      182.03124      183.43111      268.66966    
     60800  -23894.109      150.3189      -23743.791      182.00681      183.41206      268.77272    
     60900  -23879.295      151.82395     -23727.471      181.98729      183.39164      268.87577    
     61000  -23871.193      155.21164     -23715.981      181.96461      183.37223      268.97883    
     61100  -23860.284      152.75952     -23707.524      181.94252      183.35241      269.08189    
     61200  -23851.385      152.38087     -23699.004      181.92475      183.32878      269.18494    
     61300  -23843.186      154.53747     -23688.648      181.90386      183.30814      269.288      
     61400  -23828.935      151.14425     -23677.791      181.88168      183.2885       269.39106    
     61500  -23820.306      151.40169     -23668.904      181.86334      183.26505      269.49412    
     61600  -23813.182      150.77069     -23662.412      181.84049      183.24715      269.59717    
     61700  -23802.189      151.52502     -23650.664      181.81873      183.22563      269.70023    
     61800  -23786.66       150.8942      -23635.766      181.8005       183.20327      269.80329    
     61900  -23777.707      154.99158     -23622.716      181.77776      183.18394      269.90634    
     62000  -23764.277      152.62776     -23611.649      181.7568       183.16279      270.0094     
     62100  -23753.734      151.84453     -23601.89       181.73649      183.14151      270.11246    
     62200  -23744.743      152.03363     -23592.709      181.71276      183.12309      270.21551    
     62300  -23732.005      149.80302     -23582.202      181.69343      183.10019      270.31857    
     62400  -23721.489      150.44359     -23571.046      181.67397      183.07809      270.42163    
     62500  -23712.829      151.25996     -23561.569      181.65188      183.05713      270.52469    
     62600  -23704.311      152.57139     -23551.739      181.63135      183.03585      270.62774    
     62700  -23688.632      149.79044     -23538.841      181.609        183.016        270.7308     
     62800  -23677.825      153.46042     -23524.364      181.58595      182.99648      270.83386    
     62900  -23663.368      153.1302      -23510.238      181.56567      182.97469      270.93691    
     63000  -23652.377      151.3134      -23501.064      181.54584      182.95277      271.03997    
     63100  -23643.934      150.22656     -23493.708      181.52409      182.9312       271.14303    
     63200  -23632.882      150.25231     -23482.63       181.50452      182.9081       271.24608    
     63300  -23619.196      149.30984     -23469.886      181.48359      182.88832      271.34914    
     63400  -23610.219      154.85262     -23455.367      181.45977      182.8676       271.4522     
     63500  -23595.234      153.98668     -23441.248      181.43778      182.84706      271.55526    
     63600  -23586.238      152.90112     -23433.337      181.41662      182.82664      271.65831    
     63700  -23573.857      149.6091      -23424.248      181.39561      182.80337      271.76137    
     63800  -23567.506      154.30871     -23413.197      181.37533      182.78126      271.86443    
     63900  -23554.108      152.01759     -23402.09       181.35368      182.76027      271.96748    
     64000  -23543.41       150.73224     -23392.678      181.33237      182.73729      272.07054    
     64100  -23529.077      146.35167     -23382.726      181.30985      182.71735      272.1736     
     64200  -23518.951      150.53437     -23368.417      181.28756      182.6958       272.27665    
     64300  -23504.131      153.41179     -23350.719      181.26622      182.67365      272.37971    
     64400  -23491.273      153.7211      -23337.552      181.2431       182.65449      272.48277    
     64500  -23480.571      151.95508     -23328.616      181.22236      182.63002      272.58583    
     64600  -23469.423      151.25275     -23318.17       181.20181      182.60792      272.68888    
     64700  -23458.335      151.6728      -23306.662      181.17926      182.58762      272.79194    
     64800  -23442.818      148.89081     -23293.927      181.15851      182.56338      272.895      
     64900  -23433.682      150.48008     -23283.202      181.13635      182.54234      272.99805    
     65000  -23428.112      153.33237     -23274.78       181.11327      182.52197      273.10111    
     65100  -23413.733      152.01821     -23261.715      181.09188      182.49859      273.20417    
     65200  -23397.157      151.92905     -23245.228      181.06816      182.47824      273.30723    
     65300  -23386.424      156.73271     -23229.691      181.04679      182.45656      273.41028    
     65400  -23368.977      151.26071     -23217.717      181.02735      182.43083      273.51334    
     65500  -23360.636      153.83552     -23206.801      181.00476      182.40964      273.6164     
     65600  -23349.232      152.82491     -23196.407      180.98201      182.38807      273.71945    
     65700  -23334.833      150.71211     -23184.121      180.95971      182.36545      273.82251    
     65800  -23324.779      152.79621     -23171.983      180.93476      182.3456       273.92557    
     65900  -23315.681      155.49208     -23160.189      180.91368      182.32281      274.02862    
     66000  -23301.487      149.15277     -23152.334      180.89218      182.29897      274.13168    
     66100  -23287.947      150.04707     -23137.9        180.8689       182.27775      274.23474    
     66200  -23271.126      149.71034     -23121.416      180.84825      182.25285      274.3378     
     66300  -23259.113      153.37018     -23105.743      180.82645      182.2309       274.44085    
     66400  -23247.636      153.41224     -23094.224      180.80183      182.20981      274.54391    
     66500  -23236.899      151.49069     -23085.409      180.77962      182.18733      274.64697    
     66600  -23224.558      153.06388     -23071.494      180.75639      182.16491      274.75002    
     66700  -23209.146      151.88944     -23057.256      180.73435      182.14266      274.85308    
     66800  -23196.761      152.27118     -23044.49       180.71315      182.11771      274.95614    
     66900  -23185.774      151.51967     -23034.254      180.68942      182.09591      275.05919    
     67000  -23173.351      151.65341     -23021.697      180.66623      182.07436      275.16225    
     67100  -23156.928      150.36402     -23006.564      180.64393      182.04992      275.26531    
     67200  -23146.106      154.84765     -22991.258      180.62121      182.02843      275.36837    
     67300  -23134.095      153.53384     -22980.562      180.59707      182.00511      275.47142    
     67400  -23124.122      153.75208     -22970.37       180.57566      181.98142      275.57448    
     67500  -23108.973      152.64843     -22956.325      180.55128      181.96005      275.67754    
     67600  -23094.119      153.28994     -22940.829      180.52812      181.93664      275.78059    
     67700  -23077.467      151.0621      -22926.405      180.5067       181.9134       275.88365    
     67800  -23067.332      152.33273     -22914.999      180.48177      181.89037      275.98671    
     67900  -23051.762      148.65962     -22903.102      180.4599       181.86696      276.08976    
     68000  -23039.686      150.75842     -22888.928      180.43802      181.84336      276.19282    
     68100  -23025.61       151.28572     -22874.325      180.41323      181.82025      276.29588    
     68200  -23015.476      151.33166     -22864.144      180.39015      181.79832      276.39894    
     68300  -23002.005      151.77066     -22850.234      180.36669      181.77567      276.50199    
     68400  -22990.209      155.0858      -22835.123      180.34362      181.75143      276.60505    
     68500  -22973.291      154.27055     -22819.021      180.3214       181.72724      276.70811    
     68600  -22959.924      151.5085      -22808.415      180.29903      181.70378      276.81116    
     68700  -22946.393      150.57064     -22795.823      180.27528      181.6804       276.91422    
     68800  -22934.332      153.67446     -22780.658      180.24994      181.65782      277.01728    
     68900  -22919.696      152.5513      -22767.144      180.22769      181.63533      277.12033    
     69000  -22906.571      151.42619     -22755.145      180.20285      181.61169      277.22339    
     69100  -22890.185      151.70835     -22738.476      180.17918      181.58835      277.32645    
     69200  -22874.608      151.9287      -22722.679      180.15813      181.56348      277.42951    
     69300  -22863.004      154.83442     -22708.169      180.13408      181.53944      277.53256    
     69400  -22847.642      153.0845      -22694.557      180.11011      181.51735      277.63562    
     69500  -22832.743      153.50209     -22679.241      180.08616      181.49275      277.73868    
     69600  -22819.826      153.8033      -22666.022      180.06208      181.4721       277.84173    
     69700  -22802.714      150.38656     -22652.328      180.03738      181.44708      277.94479    
     69800  -22788.613      151.26244     -22637.35       180.01674      181.42216      278.04785    
     69900  -22776.978      153.57868     -22623.399      179.99208      181.39927      278.15091    
     70000  -22761.558      152.90518     -22608.653      179.96795      181.37534      278.25396    
     70100  -22746.536      152.04333     -22594.493      179.94541      181.35204      278.35702    
     70200  -22733.381      153.42147     -22579.959      179.91988      181.3282       278.46008    
     70300  -22718.572      152.46861     -22566.103      179.89758      181.30459      278.56313    
     70400  -22705.548      154.79486     -22550.753      179.87355      181.28078      278.66619    
     70500  -22688.795      152.96514     -22535.83       179.848        181.257        278.76925    
     70600  -22674.525      154.28069     -22520.245      179.82602      181.23443      278.8723     
     70700  -22660.535      156.15333     -22504.382      179.80124      181.20908      278.97536    
     70800  -22645.704      155.62776     -22490.076      179.77763      181.18598      279.07842    
     70900  -22632.127      156.63548     -22475.492      179.75527      181.16232      279.18148    
     71000  -22615.96       154.544       -22461.416      179.73123      181.13706      279.28453    
     71100  -22601.377      154.55859     -22446.819      179.70641      181.11379      279.38759    
     71200  -22586.065      153.1402      -22432.924      179.68304      181.09129      279.49065    
     71300  -22571.098      154.42333     -22416.674      179.65824      181.06744      279.5937     
     71400  -22559.11       157.55845     -22401.551      179.63401      181.04428      279.69676    
     71500  -22539.009      152.71636     -22386.293      179.6115       181.01869      279.79982    
     71600  -22527.743      156.74081     -22371.002      179.58919      180.99417      279.90287    
     71700  -22512.195      155.8506      -22356.344      179.56344      180.97119      280.00593    
     71800  -22496.36       155.61796     -22340.742      179.53943      180.94836      280.10899    
     71900  -22479.295      155.01369     -22324.281      179.51511      180.92422      280.21205    
     72000  -22464.844      156.44338     -22308.401      179.49031      180.90156      280.3151     
     72100  -22449.411      156.32605     -22293.085      179.46878      180.876        280.41816    
     72200  -22433.208      156.55744     -22276.65       179.44499      180.85176      280.52122    
     72300  -22418.573      157.42289     -22261.151      179.42017      180.82956      280.62427    
     72400  -22403.607      157.97709     -22245.63       179.39754      180.80317      280.72733    
     72500  -22387.812      156.97938     -22230.833      179.37263      180.78214      280.83039    
     72600  -22371.036      156.00574     -22215.03       179.34813      180.75817      280.93344    
     72700  -22354.969      156.81975     -22198.149      179.32608      180.7326       281.0365     
     72800  -22338.492      154.97678     -22183.515      179.30126      180.71062      281.13956    
[...]
     81600  -27542.44       150.96736     -27391.472      180.1552       181.06811      290.20858    
     81700  -27542.155      158.69762     -27383.458      180.22514      181.10845      290.31163    
     81800  -27551.865      164.50672     -27387.358      180.29239      181.15127      290.41469    
     81900  -27569.807      156.23765     -27413.569      180.35887      181.19644      290.51775    
     82000  -27590.441      147.54763     -27442.894      180.42578      181.24276      290.62081    
     82100  -27603.003      143.86026     -27459.143      180.48967      181.29147      290.72386    
     82200  -27606.781      146.6027      -27460.178      180.55053      181.34283      290.82692    
     82300  -27600.319      149.24563     -27451.074      180.60798      181.39675      290.92998    
     82400  -27587.385      150.55049     -27436.835      180.66828      181.4494       291.03303    
     82500  -27570.187      149.62255     -27420.564      180.72812      181.50418      291.13609    
     82600  -27552.833      151.28776     -27401.545      180.78876      181.55944      291.23915    
     82700  -27549.687      165.04556     -27384.641      180.85798      181.60767      291.3422     
     82800  -27556.685      165.99968     -27390.686      180.93514      181.6493       291.44526    
     82900  -27570.285      150.92557     -27419.359      181.01281      181.69319      291.54832    
     83000  -27581.644      141.95154     -27439.692      181.08928      181.73955      291.65138    
     83100  -27590.391      148.1158      -27442.275      181.1668       181.78119      291.75443    
     83200  -27600.489      159.46253     -27441.027      181.23924      181.82713      291.85749    
     83300  -27599.466      149.59459     -27449.871      181.3064       181.87379      291.96055    
     83400  -27595.281      141.4942      -27453.787      181.37407      181.91927      292.0636     
     83500  -27580.992      141.47941     -27439.512      181.43834      181.96473      292.16666    
     83600  -27564.198      152.3297      -27411.868      181.4962       182.01796      292.26972    
     83700  -27551.006      162.11576     -27388.89       181.55999      182.07084      292.37277    
     83800  -27547.818      162.07076     -27385.748      181.63033      182.11668      292.47583    
     83900  -27559.156      155.86467     -27403.291      181.69819      182.16603      292.57889    
     84000  -27574.602      150.14002     -27424.462      181.76736      182.2138       292.68195    
     84100  -27591.108      150.23825     -27440.869      181.83516      182.26197      292.785      
     84200  -27596.452      144.87918     -27451.572      181.90079      182.31117      292.88806    
     84300  -27597.927      146.34645     -27451.581      181.96558      182.36316      292.99112    
     84400  -27588.38       148.88054     -27439.5        182.02982      182.41315      293.09417    
     84500  -27579.628      155.56319     -27424.064      182.09359      182.46262      293.19723    
     84600  -27566.108      153.23478     -27412.873      182.15526      182.51349      293.30029    
     84700  -27555.25       151.49136     -27403.759      182.2176       182.55881      293.40334    
     84800  -27550.164      156.30239     -27393.861      182.28468      182.5996       293.5064     
     84900  -27556.193      163.25865     -27392.934      182.34869      182.64289      293.60946    
     85000  -27570.963      159.03338     -27411.93       182.40863      182.68765      293.71252    
     85100  -27588.979      150.0843      -27438.894      182.47271      182.72807      293.81557    
     85200  -27598.98       141.82466     -27457.156      182.53664      182.76719      293.91863    
     85300  -27600.79       143.75697     -27457.033      182.5962       182.80909      294.02169    
     85400  -27593.564      151.23277     -27442.331      182.6573       182.85141      294.12474    
     85500  -27582.943      154.42685     -27428.516      182.72273      182.89257      294.2278     
     85600  -27572.26       150.57528     -27421.685      182.78309      182.93417      294.33086    
     85700  -27564.153      150.90205     -27413.251      182.84405      182.97814      294.43391    
     85800  -27554.03       154.0963      -27399.933      182.9067       183.02218      294.53697    
     85900  -27554.283      162.39233     -27391.891      182.96969      183.069        294.64003    
     86000  -27565.625      161.43656     -27404.188      183.02648      183.12243      294.74309    
     86100  -27580.497      150.04547     -27430.452      183.08789      183.17577      294.84614    
     86200  -27594.225      145.02685     -27449.198      183.15106      183.22823      294.9492     
     86300  -27596.702      144.32569     -27452.377      183.21055      183.27966      295.05226    
     86400  -27589.902      148.50342     -27441.398      183.26872      183.33553      295.15531    
     86500  -27579.55       154.39943     -27425.15       183.32846      183.38827      295.25837    
     86600  -27567.574      155.8908      -27411.683      183.3872       183.43758      295.36143    
     86700  -27557.055      153.57376     -27403.481      183.44649      183.48839      295.46449    
     86800  -27546.533      149.39279     -27397.14       183.50643      183.53594      295.56754    
     86900  -27548.75       158.22887     -27390.522      183.56754      183.57715      295.6706     
     87000  -27559.47       163.34162     -27396.128      183.63004      183.62059      295.77366    
     87100  -27574.282      154.33582     -27419.946      183.69133      183.65868      295.87671    
     87200  -27590.81       146.35803     -27444.452      183.75324      183.69249      295.97977    
     87300  -27599.789      143.3317      -27456.457      183.81704      183.72725      296.08283    
     87400  -27595.772      143.79182     -27451.98       183.87381      183.76224      296.18588    
     87500  -27587.781      153.095       -27434.686      183.92882      183.79883      296.28894    
     87600  -27578.023      156.91783     -27421.105      183.98468      183.83962      296.392      
     87700  -27569.016      151.74972     -27417.266      184.03924      183.87966      296.49506    
     87800  -27559.761      146.83055     -27412.93       184.09709      183.92139      296.59811    
     87900  -27557.722      155.44977     -27402.272      184.15914      183.96447      296.70117    
     88000  -27560.353      161.80343     -27398.549      184.22126      184.00936      296.80423    
     88100  -27570.339      156.41421     -27413.925      184.28513      184.06002      296.90728    
     88200  -27586.672      149.49267     -27437.179      184.35022      184.11184      297.01034    
     88300  -27596.158      142.6411      -27453.516      184.41556      184.16372      297.1134     
     88400  -27596.607      144.2645      -27452.342      184.47761      184.21866      297.21645    
     88500  -27583.699      148.91026     -27434.789      184.53971      184.27263      297.31951    
     88600  -27572.257      156.79378     -27415.463      184.6026       184.32653      297.42257    
     88700  -27560.644      155.07741     -27405.566      184.66542      184.37861      297.52563    
     88800  -27555.193      153.00843     -27402.185      184.72872      184.42687      297.62868    
     88900  -27556.629      155.41398     -27401.215      184.79361      184.47392      297.73174    
     89000  -27564.007      158.04951     -27405.957      184.8553       184.51945      297.8348     
     89100  -27572.808      152.46701     -27420.341      184.92102      184.56296      297.93785    
     89200  -27586.299      149.49914     -27436.8        184.99004      184.60108      298.04091    
     89300  -27592.17       145.44852     -27446.722      185.05714      184.63803      298.14397    
     89400  -27594.281      147.94968     -27446.331      185.12204      184.67742      298.24702    
     89500  -27588.975      150.77399     -27438.201      185.18858      184.71602      298.35008    
     89600  -27583.823      153.15871     -27430.664      185.25469      184.754        298.45314    
     89700  -27574.542      149.44924     -27425.093      185.31824      184.79849      298.5562     
     89800  -27564.024      149.03994     -27414.984      185.38157      184.84353      298.65925    
     89900  -27555.211      155.30334     -27399.908      185.44887      184.88772      298.76231    
     90000  -27552.732      160.587       -27392.145      185.51724      184.93861      298.86537    
     90100  -27562.006      158.95443     -27403.052      185.58211      184.9954       298.96842    
     90200  -27577.268      151.59096     -27425.677      185.64532      185.05406      299.07148    
     90300  -27588.343      144.87097     -27443.472      185.71185      185.11251      299.17454    
     90400  -27592.682      144.63175     -27448.051      185.77894      185.16966      299.27759    
     90500  -27588.972      149.99816     -27438.973      185.84233      185.22749      299.38065    
     90600  -27582.09       155.91668     -27426.174      185.90871      185.28388      299.48371    
     90700  -27570.286      151.98784     -27418.298      185.97316      185.34168      299.58677    
     90800  -27565.097      152.54758     -27412.55       186.03446      185.39972      299.68982    
     90900  -27558.202      151.81117     -27406.391      186.09947      185.45309      299.79288    
     91000  -27560.18       157.58706     -27402.593      186.16869      185.49789      299.89594    
     91100  -27567.556      157.98842     -27409.567      186.23529      185.54177      299.99899    
     91200  -27578.463      151.58191     -27426.881      186.30394      185.58184      300.10205    
     91300  -27589.584      146.25519     -27443.329      186.37573      185.61804      300.20511    
     91400  -27593.084      144.43013     -27448.653      186.44584      185.6558       300.30817    
     91500  -27591.786      149.6253      -27442.161      186.51306      185.69383      300.41122    
     91600  -27584.929      152.77766     -27432.151      186.58193      185.73319      300.51428    
     91700  -27578.079      152.69748     -27425.382      186.64661      185.77821      300.61734    
     91800  -27570.181      149.81982     -27420.362      186.70893      185.82737      300.72039    
     91900  -27561.285      149.97029     -27411.314      186.77702      185.87561      300.82345    
     92000  -27558.379      156.86053     -27401.518      186.84807      185.92605      300.92651    
     92100  -27561.303      158.93506     -27402.368      186.91496      185.98391      301.02956    
     92200  -27574.651      155.86833     -27418.783      186.98071      186.04659      301.13262    
     92300  -27585.034      147.52869     -27437.505      187.04954      186.10757      301.23568    
     92400  -27592.443      145.35596     -27447.087      187.1188       186.1703       301.33874    
     92500  -27591.899      147.80517     -27444.093      187.18576      186.23655      301.44179    
     92600  -27582.983      151.69766     -27431.285      187.25218      186.29987      301.54485    
     92700  -27572.376      155.17128     -27417.204      187.31758      186.36222      301.64791    
     92800  -27566.412      156.71222     -27409.7        187.38109      186.42215      301.75096    
     92900  -27560.503      152.28932     -27408.213      187.44709      186.47544      301.85402    
     93000  -27561.523      152.34551     -27409.177      187.51252      186.52448      301.95708    
     93100  -27566.451      153.99027     -27412.461      187.57554      186.5714       302.06013    
     93200  -27573.949      153.30841     -27420.641      187.64111      186.61315      302.16319    
     93300  -27582.185      149.90648     -27432.278      187.70759      186.65101      302.26625    
     93400  -27587.743      146.46109     -27441.282      187.77055      186.68601      302.36931    
     93500  -27591.109      148.5089      -27442.6        187.83393      186.72225      302.47236    
     93600  -27585.925      149.72553     -27436.2        187.89641      186.75896      302.57542    
     93700  -27579.076      152.92032     -27426.156      187.95657      186.79511      302.67848    
     93800  -27569.982      152.40019     -27417.582      188.01798      186.83452      302.78153    
     93900  -27565.513      154.08507     -27411.428      188.07909      186.88316      302.88459    
     94000  -27561.911      153.47223     -27408.438      188.14081      186.9338       302.98765    
     94100  -27564.875      153.24432     -27411.63       188.20294      186.98769      303.0907     
     94200  -27573.03       151.68656     -27421.343      188.26866      187.04719      303.19376    
     94300  -27582.103      149.50861     -27432.594      188.33268      187.10866      303.29682    
     94400  -27589.676      149.32067     -27440.356      188.39617      187.16992      303.39988    
     94500  -27589.539      148.30373     -27441.235      188.46067      187.23631      303.50293    
     94600  -27584.089      148.69728     -27435.392      188.52337      187.30025      303.60599    
     94700  -27577.147      152.82249     -27424.324      188.58352      187.3632       303.70905    
     94800  -27567.882      155.89566     -27411.987      188.64404      187.42299      303.8121     
     94900  -27561.562      156.75371     -27404.808      188.70572      187.47833      303.91516    
     95000  -27560.547      154.07859     -27406.468      188.76939      187.52853      304.01822    
     95100  -27565.611      150.91699     -27414.694      188.83325      187.57167      304.12128    
     95200  -27571.674      148.52811     -27423.146      188.89711      187.61147      304.22433    
     95300  -27577.474      150.86742     -27426.607      188.9617       187.64596      304.32739    
     95400  -27584.261      154.93789     -27429.323      189.02496      187.67557      304.43045    
     95500  -27590.201      153.31624     -27436.885      189.08888      187.70566      304.5335     
     95600  -27588.004      143.05449     -27444.949      189.15022      187.73805      304.63656    
     95700  -27583.471      142.46287     -27441.009      189.21121      187.77022      304.73962    
     95800  -27571.043      148.69651     -27422.346      189.26934      187.80894      304.84267    
     95900  -27560.58       158.16208     -27402.418      189.32709      187.85197      304.94573    
     96000  -27557.901      161.38086     -27396.52       189.38631      187.90079      305.04879    
     96100  -27562.123      153.97227     -27408.151      189.44889      187.95392      305.15185    
     96200  -27573.053      147.94911     -27425.104      189.51043      188.00934      305.2549     
     96300  -27583.026      147.72522     -27435.3        189.57399      188.07192      305.35796    
     96400  -27587.34       151.74429     -27435.596      189.63625      188.138        305.46102    
     96500  -27586.012      154.05216     -27431.96       189.69534      188.2026       305.56407    
     96600  -27583.653      153.91965     -27429.733      189.75441      188.27284      305.66713    
     96700  -27579.728      150.22018     -27429.508      189.81194      188.34029      305.77019    
     96800  -27569.655      145.87894     -27423.777      189.87016      188.39704      305.87324    
     96900  -27561.499      151.77211     -27409.727      189.9315       188.44841      305.9763     
     97000  -27557.128      161.21196     -27395.916      189.99417      188.49211      306.07936    
     97100  -27560.668      163.22995     -27397.439      190.05349      188.52753      306.18242    
     97200  -27569.324      153.64385     -27415.68       190.11463      188.56084      306.28547    
     97300  -27580.2        146.84051     -27433.36       190.17545      188.58875      306.38853    
     97400  -27586.816      145.65313     -27441.163      190.23357      188.61405      306.49159    
     97500  -27589.252      150.39541     -27438.856      190.29233      188.64122      306.59464    
     97600  -27584.93       151.77812     -27433.152      190.35168      188.66734      306.6977     
     97700  -27579.514      151.33671     -27428.177      190.40983      188.69309      306.80076    
     97800  -27575.277      151.68966     -27423.587      190.4711       188.72158      306.90381    
     97900  -27569.561      151.65088     -27417.91       190.53324      188.75354      307.00687    
     98000  -27566.236      153.13357     -27413.102      190.59436      188.79373      307.10993    
     98100  -27569.319      155.76208     -27413.557      190.65285      188.84171      307.21299    
     98200  -27575.53       154.10094     -27421.429      190.71406      188.89344      307.31604    
     98300  -27581.447      149.47703     -27431.97       190.77438      188.95476      307.4191     
     98400  -27586.218      147.51002     -27438.708      190.83335      189.0178       307.52216    
     98500  -27584.166      145.83709     -27438.329      190.89098      189.08466      307.62521    
     98600  -27582.233      151.41766     -27430.815      190.95073      189.15006      307.72827    
     98700  -27577.189      155.44746     -27421.742      191.00882      189.20869      307.83133    
     98800  -27569.559      153.93708     -27415.622      191.06602      189.26475      307.93438    
     98900  -27564.401      153.17625     -27411.225      191.12681      189.31346      308.03744    
     99000  -27564.435      154.04398     -27410.391      191.18673      189.35291      308.1405     
     99100  -27566.444      153.01876     -27413.426      191.24515      189.38964      308.24356    
     99200  -27572.541      152.6925      -27419.848      191.30343      189.42101      308.34661    
     99300  -27579.775      152.03503     -27427.74       191.36198      189.4432       308.44967    
     99400  -27584.469      149.51335     -27434.955      191.42231      189.4621       308.55273    
     99500  -27587.62       149.39828     -27438.222      191.48095      189.48023      308.65578    
     99600  -27584.585      149.32755     -27435.257      191.53546      189.50161      308.75884    
     99700  -27580.401      152.51608     -27427.885      191.59097      189.52541      308.8619     
     99800  -27573.41       153.20454     -27420.206      191.64771      189.55308      308.96496    
     99900  -27568.455      153.79976     -27414.656      191.70787      189.58606      309.06801    
    100000  -27568.357      155.27138     -27413.086      191.76597      189.6261       309.17107    
Loop time of 49499.5 on 12 procs for 100000 steps with 3920 atoms

Performance: 0.175 ns/day, 137.499 hours/ns, 2.020 timesteps/s, 7.919 katom-step/s
37.8% CPU use with 12 MPI tasks x 1 OpenMP threads

MPI task timing breakdown:
Section |  min time  |  avg time  |  max time  |%varavg| %total
---------------------------------------------------------------
Pair    | 535.72     | 776.49     | 1239.2     | 665.2 |  1.57
Neigh   | 2.6461     | 5.64       | 8.4608     |  90.9 |  0.01
Comm    | 7763.5     | 8253.2     | 9445.6     | 505.2 | 16.67
Output  | 154.25     | 158.73     | 163.38     |  23.5 |  0.32
Modify  | 34689      | 35811      | 36343      | 247.4 | 72.35
Other   |            | 4495       |            |       |  9.08

Nlocal:        326.667 ave        1189 max           0 min
Histogram: 5 2 0 2 0 1 1 0 0 1
Nghost:        1094.17 ave        2195 max         351 min
Histogram: 4 1 0 2 0 1 0 2 1 1
Neighs:              0 ave           0 max           0 min
Histogram: 12 0 0 0 0 0 0 0 0 0

Total # of neighbors = 0
Ave neighs/atom = 0
Neighbor list builds = 771
Dangerous builds = 0
Total wall time: 13:45:05
